n -t * -s 0  -x 0 -y 0 -Z 0 -z 20  -v circle -c green
n -t * -s 1  -x 125 -y 0 -Z 0 -z 20  -v circle -c green
n -t * -s 2  -x 250 -y 0 -Z 0 -z 20  -v circle -c green
n -t * -s 3  -x 375 -y 0 -Z 0 -z 20  -v circle -c green
n -t * -s 4  -x 500 -y 0 -Z 0 -z 20  -v circle -c green
n -t * -s 5  -x 625 -y 0 -Z 0 -z 20  -v circle -c green
n -t * -s 6  -x 750 -y 0 -Z 0 -z 20  -v circle -c green
n -t * -s 7  -x 875 -y 0 -Z 0 -z 20  -v circle -c green
n -t * -s 8  -x 1000 -y 0 -Z 0 -z 20  -v circle -c green
n -t * -s 9  -x 1125 -y 0 -Z 0 -z 20  -v circle -c green
n -t * -s 10  -x 0 -y 125 -Z 0 -z 20  -v circle -c green
n -t * -s 11  -x 125 -y 125 -Z 0 -z 20  -v circle -c green
n -t * -s 12  -x 250 -y 125 -Z 0 -z 20  -v circle -c green
n -t * -s 13  -x 375 -y 125 -Z 0 -z 20  -v circle -c green
n -t * -s 14  -x 500 -y 125 -Z 0 -z 20  -v circle -c green
n -t * -s 15  -x 625 -y 125 -Z 0 -z 20  -v circle -c green
n -t * -s 16  -x 750 -y 125 -Z 0 -z 20  -v circle -c green
n -t * -s 17  -x 875 -y 125 -Z 0 -z 20  -v circle -c green
n -t * -s 18  -x 1000 -y 125 -Z 0 -z 20  -v circle -c green
n -t * -s 19  -x 1125 -y 125 -Z 0 -z 20  -v circle -c green
n -t * -s 20  -x 0 -y 250 -Z 0 -z 20  -v circle -c green
n -t * -s 21  -x 125 -y 250 -Z 0 -z 20  -v circle -c green
n -t * -s 22  -x 250 -y 250 -Z 0 -z 20  -v circle -c green
n -t * -s 23  -x 375 -y 250 -Z 0 -z 20  -v circle -c green
n -t * -s 24  -x 500 -y 250 -Z 0 -z 20  -v circle -c green
n -t * -s 25  -x 625 -y 250 -Z 0 -z 20  -v circle -c green
n -t * -s 26  -x 750 -y 250 -Z 0 -z 20  -v circle -c green
n -t * -s 27  -x 875 -y 250 -Z 0 -z 20  -v circle -c green
n -t * -s 28  -x 1000 -y 250 -Z 0 -z 20  -v circle -c green
n -t * -s 29  -x 1125 -y 250 -Z 0 -z 20  -v circle -c green
n -t * -s 30  -x 0 -y 375 -Z 0 -z 20  -v circle -c green
n -t * -s 31  -x 125 -y 375 -Z 0 -z 20  -v circle -c green
n -t * -s 32  -x 250 -y 375 -Z 0 -z 20  -v circle -c green
n -t * -s 33  -x 375 -y 375 -Z 0 -z 20  -v circle -c green
n -t * -s 34  -x 500 -y 375 -Z 0 -z 20  -v circle -c green
n -t * -s 35  -x 625 -y 375 -Z 0 -z 20  -v circle -c green
n -t * -s 36  -x 750 -y 375 -Z 0 -z 20  -v circle -c green
n -t * -s 37  -x 875 -y 375 -Z 0 -z 20  -v circle -c green
n -t * -s 38  -x 1000 -y 375 -Z 0 -z 20  -v circle -c green
n -t * -s 39  -x 1125 -y 375 -Z 0 -z 20  -v circle -c green
V -t * -v 1.0a5 -a 0
W -t * -x 500 -y 500
A -t * -n 1 -p 0 -o 0x7fffffff -c 30 -a 1
A -t * -h 1 -m 1073741823 -s 0
+ -t 0.036328457 -s 11 -d -1 -p message -e 32 -c 2 -a 0 -i 0 -k RTR 
- -t 0.036328457 -s 11 -d -1 -p message -e 32 -c 2 -a 0 -i 0 -k RTR
h -t 0.036328457 -s 11 -d -1 -p message -e 32 -c 2 -a 0 -i 0 -k RTR
r -t 0.038778874 -s 1 -d -1 -p message -e 32 -c 2 -a 0 -i 0 -k RTR
r -t 0.038778874 -s 10 -d -1 -p message -e 32 -c 2 -a 0 -i 0 -k RTR
r -t 0.038778874 -s 21 -d -1 -p message -e 32 -c 2 -a 0 -i 0 -k RTR
r -t 0.038778874 -s 12 -d -1 -p message -e 32 -c 2 -a 0 -i 0 -k RTR
r -t 0.038779046 -s 20 -d -1 -p message -e 32 -c 2 -a 0 -i 0 -k RTR
r -t 0.038779046 -s 0 -d -1 -p message -e 32 -c 2 -a 0 -i 0 -k RTR
r -t 0.038779046 -s 2 -d -1 -p message -e 32 -c 2 -a 0 -i 0 -k RTR
r -t 0.038779046 -s 22 -d -1 -p message -e 32 -c 2 -a 0 -i 0 -k RTR
r -t 0.038779290 -s 31 -d -1 -p message -e 32 -c 2 -a 0 -i 0 -k RTR
r -t 0.038779290 -s 13 -d -1 -p message -e 32 -c 2 -a 0 -i 0 -k RTR
+ -t 0.073282045 -s 4 -d -1 -p message -e 32 -c 2 -a 0 -i 1 -k RTR 
- -t 0.073282045 -s 4 -d -1 -p message -e 32 -c 2 -a 0 -i 1 -k RTR
h -t 0.073282045 -s 4 -d -1 -p message -e 32 -c 2 -a 0 -i 1 -k RTR
r -t 0.076692462 -s 3 -d -1 -p message -e 32 -c 2 -a 0 -i 1 -k RTR
r -t 0.076692462 -s 14 -d -1 -p message -e 32 -c 2 -a 0 -i 1 -k RTR
r -t 0.076692462 -s 5 -d -1 -p message -e 32 -c 2 -a 0 -i 1 -k RTR
r -t 0.076692634 -s 13 -d -1 -p message -e 32 -c 2 -a 0 -i 1 -k RTR
r -t 0.076692634 -s 15 -d -1 -p message -e 32 -c 2 -a 0 -i 1 -k RTR
r -t 0.076692878 -s 2 -d -1 -p message -e 32 -c 2 -a 0 -i 1 -k RTR
r -t 0.076692878 -s 24 -d -1 -p message -e 32 -c 2 -a 0 -i 1 -k RTR
r -t 0.076692878 -s 6 -d -1 -p message -e 32 -c 2 -a 0 -i 1 -k RTR
+ -t 0.088584275 -s 31 -d -1 -p message -e 32 -c 2 -a 0 -i 2 -k RTR 
- -t 0.088584275 -s 31 -d -1 -p message -e 32 -c 2 -a 0 -i 2 -k RTR
h -t 0.088584275 -s 31 -d -1 -p message -e 32 -c 2 -a 0 -i 2 -k RTR
r -t 0.092634691 -s 21 -d -1 -p message -e 32 -c 2 -a 0 -i 2 -k RTR
r -t 0.092634691 -s 30 -d -1 -p message -e 32 -c 2 -a 0 -i 2 -k RTR
r -t 0.092634691 -s 32 -d -1 -p message -e 32 -c 2 -a 0 -i 2 -k RTR
r -t 0.092634864 -s 20 -d -1 -p message -e 32 -c 2 -a 0 -i 2 -k RTR
r -t 0.092634864 -s 22 -d -1 -p message -e 32 -c 2 -a 0 -i 2 -k RTR
r -t 0.092635108 -s 11 -d -1 -p message -e 32 -c 2 -a 0 -i 2 -k RTR
r -t 0.092635108 -s 33 -d -1 -p message -e 32 -c 2 -a 0 -i 2 -k RTR
+ -t 0.126846076 -s 36 -d -1 -p message -e 32 -c 2 -a 0 -i 3 -k RTR 
- -t 0.126846076 -s 36 -d -1 -p message -e 32 -c 2 -a 0 -i 3 -k RTR
h -t 0.126846076 -s 36 -d -1 -p message -e 32 -c 2 -a 0 -i 3 -k RTR
+ -t 0.129642904 -s 28 -d -1 -p message -e 32 -c 2 -a 0 -i 4 -k RTR 
- -t 0.129642904 -s 28 -d -1 -p message -e 32 -c 2 -a 0 -i 4 -k RTR
h -t 0.129642904 -s 28 -d -1 -p message -e 32 -c 2 -a 0 -i 4 -k RTR
r -t 0.130896492 -s 26 -d -1 -p message -e 32 -c 2 -a 0 -i 3 -k RTR
r -t 0.130896492 -s 35 -d -1 -p message -e 32 -c 2 -a 0 -i 3 -k RTR
r -t 0.130896492 -s 37 -d -1 -p message -e 32 -c 2 -a 0 -i 3 -k RTR
r -t 0.130896665 -s 25 -d -1 -p message -e 32 -c 2 -a 0 -i 3 -k RTR
r -t 0.130896665 -s 27 -d -1 -p message -e 32 -c 2 -a 0 -i 3 -k RTR
r -t 0.130896909 -s 16 -d -1 -p message -e 32 -c 2 -a 0 -i 3 -k RTR
r -t 0.130896909 -s 34 -d -1 -p message -e 32 -c 2 -a 0 -i 3 -k RTR
r -t 0.130896909 -s 38 -d -1 -p message -e 32 -c 2 -a 0 -i 3 -k RTR
r -t 0.133373321 -s 18 -d -1 -p message -e 32 -c 2 -a 0 -i 4 -k RTR
r -t 0.133373321 -s 27 -d -1 -p message -e 32 -c 2 -a 0 -i 4 -k RTR
r -t 0.133373321 -s 38 -d -1 -p message -e 32 -c 2 -a 0 -i 4 -k RTR
r -t 0.133373321 -s 29 -d -1 -p message -e 32 -c 2 -a 0 -i 4 -k RTR
r -t 0.133373494 -s 37 -d -1 -p message -e 32 -c 2 -a 0 -i 4 -k RTR
r -t 0.133373494 -s 17 -d -1 -p message -e 32 -c 2 -a 0 -i 4 -k RTR
r -t 0.133373494 -s 19 -d -1 -p message -e 32 -c 2 -a 0 -i 4 -k RTR
r -t 0.133373494 -s 39 -d -1 -p message -e 32 -c 2 -a 0 -i 4 -k RTR
r -t 0.133373738 -s 8 -d -1 -p message -e 32 -c 2 -a 0 -i 4 -k RTR
r -t 0.133373738 -s 26 -d -1 -p message -e 32 -c 2 -a 0 -i 4 -k RTR
+ -t 0.247164037 -s 15 -d -1 -p message -e 32 -c 2 -a 0 -i 5 -k RTR 
- -t 0.247164037 -s 15 -d -1 -p message -e 32 -c 2 -a 0 -i 5 -k RTR
h -t 0.247164037 -s 15 -d -1 -p message -e 32 -c 2 -a 0 -i 5 -k RTR
r -t 0.250574453 -s 5 -d -1 -p message -e 32 -c 2 -a 0 -i 5 -k RTR
r -t 0.250574453 -s 14 -d -1 -p message -e 32 -c 2 -a 0 -i 5 -k RTR
r -t 0.250574453 -s 25 -d -1 -p message -e 32 -c 2 -a 0 -i 5 -k RTR
r -t 0.250574453 -s 16 -d -1 -p message -e 32 -c 2 -a 0 -i 5 -k RTR
r -t 0.250574626 -s 24 -d -1 -p message -e 32 -c 2 -a 0 -i 5 -k RTR
r -t 0.250574626 -s 4 -d -1 -p message -e 32 -c 2 -a 0 -i 5 -k RTR
r -t 0.250574626 -s 6 -d -1 -p message -e 32 -c 2 -a 0 -i 5 -k RTR
r -t 0.250574626 -s 26 -d -1 -p message -e 32 -c 2 -a 0 -i 5 -k RTR
r -t 0.250574870 -s 13 -d -1 -p message -e 32 -c 2 -a 0 -i 5 -k RTR
r -t 0.250574870 -s 35 -d -1 -p message -e 32 -c 2 -a 0 -i 5 -k RTR
r -t 0.250574870 -s 17 -d -1 -p message -e 32 -c 2 -a 0 -i 5 -k RTR
+ -t 0.321822596 -s 26 -d -1 -p message -e 32 -c 2 -a 0 -i 6 -k RTR 
- -t 0.321822596 -s 26 -d -1 -p message -e 32 -c 2 -a 0 -i 6 -k RTR
h -t 0.321822596 -s 26 -d -1 -p message -e 32 -c 2 -a 0 -i 6 -k RTR
r -t 0.324273013 -s 16 -d -1 -p message -e 32 -c 2 -a 0 -i 6 -k RTR
r -t 0.324273013 -s 25 -d -1 -p message -e 32 -c 2 -a 0 -i 6 -k RTR
r -t 0.324273013 -s 36 -d -1 -p message -e 32 -c 2 -a 0 -i 6 -k RTR
r -t 0.324273013 -s 27 -d -1 -p message -e 32 -c 2 -a 0 -i 6 -k RTR
r -t 0.324273186 -s 35 -d -1 -p message -e 32 -c 2 -a 0 -i 6 -k RTR
r -t 0.324273186 -s 15 -d -1 -p message -e 32 -c 2 -a 0 -i 6 -k RTR
r -t 0.324273186 -s 17 -d -1 -p message -e 32 -c 2 -a 0 -i 6 -k RTR
r -t 0.324273186 -s 37 -d -1 -p message -e 32 -c 2 -a 0 -i 6 -k RTR
r -t 0.324273430 -s 6 -d -1 -p message -e 32 -c 2 -a 0 -i 6 -k RTR
r -t 0.324273430 -s 24 -d -1 -p message -e 32 -c 2 -a 0 -i 6 -k RTR
r -t 0.324273430 -s 28 -d -1 -p message -e 32 -c 2 -a 0 -i 6 -k RTR
+ -t 0.349191800 -s 3 -d -1 -p message -e 32 -c 2 -a 0 -i 7 -k RTR 
- -t 0.349191800 -s 3 -d -1 -p message -e 32 -c 2 -a 0 -i 7 -k RTR
h -t 0.349191800 -s 3 -d -1 -p message -e 32 -c 2 -a 0 -i 7 -k RTR
r -t 0.352922217 -s 2 -d -1 -p message -e 32 -c 2 -a 0 -i 7 -k RTR
r -t 0.352922217 -s 13 -d -1 -p message -e 32 -c 2 -a 0 -i 7 -k RTR
r -t 0.352922217 -s 4 -d -1 -p message -e 32 -c 2 -a 0 -i 7 -k RTR
r -t 0.352922390 -s 12 -d -1 -p message -e 32 -c 2 -a 0 -i 7 -k RTR
r -t 0.352922390 -s 14 -d -1 -p message -e 32 -c 2 -a 0 -i 7 -k RTR
r -t 0.352922634 -s 1 -d -1 -p message -e 32 -c 2 -a 0 -i 7 -k RTR
r -t 0.352922634 -s 23 -d -1 -p message -e 32 -c 2 -a 0 -i 7 -k RTR
r -t 0.352922634 -s 5 -d -1 -p message -e 32 -c 2 -a 0 -i 7 -k RTR
+ -t 0.356017125 -s 29 -d -1 -p message -e 32 -c 2 -a 0 -i 8 -k RTR 
- -t 0.356017125 -s 29 -d -1 -p message -e 32 -c 2 -a 0 -i 8 -k RTR
h -t 0.356017125 -s 29 -d -1 -p message -e 32 -c 2 -a 0 -i 8 -k RTR
r -t 0.359427542 -s 19 -d -1 -p message -e 32 -c 2 -a 0 -i 8 -k RTR
r -t 0.359427542 -s 28 -d -1 -p message -e 32 -c 2 -a 0 -i 8 -k RTR
r -t 0.359427542 -s 39 -d -1 -p message -e 32 -c 2 -a 0 -i 8 -k RTR
r -t 0.359427714 -s 38 -d -1 -p message -e 32 -c 2 -a 0 -i 8 -k RTR
r -t 0.359427714 -s 18 -d -1 -p message -e 32 -c 2 -a 0 -i 8 -k RTR
r -t 0.359427958 -s 9 -d -1 -p message -e 32 -c 2 -a 0 -i 8 -k RTR
r -t 0.359427958 -s 27 -d -1 -p message -e 32 -c 2 -a 0 -i 8 -k RTR
+ -t 0.421784672 -s 10 -d -1 -p message -e 32 -c 2 -a 0 -i 9 -k RTR 
- -t 0.421784672 -s 10 -d -1 -p message -e 32 -c 2 -a 0 -i 9 -k RTR
h -t 0.421784672 -s 10 -d -1 -p message -e 32 -c 2 -a 0 -i 9 -k RTR
r -t 0.425515089 -s 0 -d -1 -p message -e 32 -c 2 -a 0 -i 9 -k RTR
r -t 0.425515089 -s 20 -d -1 -p message -e 32 -c 2 -a 0 -i 9 -k RTR
r -t 0.425515089 -s 11 -d -1 -p message -e 32 -c 2 -a 0 -i 9 -k RTR
r -t 0.425515261 -s 1 -d -1 -p message -e 32 -c 2 -a 0 -i 9 -k RTR
r -t 0.425515261 -s 21 -d -1 -p message -e 32 -c 2 -a 0 -i 9 -k RTR
r -t 0.425515505 -s 30 -d -1 -p message -e 32 -c 2 -a 0 -i 9 -k RTR
r -t 0.425515505 -s 12 -d -1 -p message -e 32 -c 2 -a 0 -i 9 -k RTR
+ -t 0.429968552 -s 17 -d -1 -p message -e 32 -c 2 -a 0 -i 10 -k RTR 
- -t 0.429968552 -s 17 -d -1 -p message -e 32 -c 2 -a 0 -i 10 -k RTR
h -t 0.429968552 -s 17 -d -1 -p message -e 32 -c 2 -a 0 -i 10 -k RTR
r -t 0.434018968 -s 7 -d -1 -p message -e 32 -c 2 -a 0 -i 10 -k RTR
r -t 0.434018968 -s 16 -d -1 -p message -e 32 -c 2 -a 0 -i 10 -k RTR
r -t 0.434018968 -s 27 -d -1 -p message -e 32 -c 2 -a 0 -i 10 -k RTR
r -t 0.434018968 -s 18 -d -1 -p message -e 32 -c 2 -a 0 -i 10 -k RTR
r -t 0.434019141 -s 26 -d -1 -p message -e 32 -c 2 -a 0 -i 10 -k RTR
r -t 0.434019141 -s 6 -d -1 -p message -e 32 -c 2 -a 0 -i 10 -k RTR
r -t 0.434019141 -s 8 -d -1 -p message -e 32 -c 2 -a 0 -i 10 -k RTR
r -t 0.434019141 -s 28 -d -1 -p message -e 32 -c 2 -a 0 -i 10 -k RTR
r -t 0.434019385 -s 15 -d -1 -p message -e 32 -c 2 -a 0 -i 10 -k RTR
r -t 0.434019385 -s 37 -d -1 -p message -e 32 -c 2 -a 0 -i 10 -k RTR
r -t 0.434019385 -s 19 -d -1 -p message -e 32 -c 2 -a 0 -i 10 -k RTR
+ -t 0.454435365 -s 34 -d -1 -p message -e 32 -c 2 -a 0 -i 11 -k RTR 
- -t 0.454435365 -s 34 -d -1 -p message -e 32 -c 2 -a 0 -i 11 -k RTR
h -t 0.454435365 -s 34 -d -1 -p message -e 32 -c 2 -a 0 -i 11 -k RTR
r -t 0.458165782 -s 24 -d -1 -p message -e 32 -c 2 -a 0 -i 11 -k RTR
r -t 0.458165782 -s 33 -d -1 -p message -e 32 -c 2 -a 0 -i 11 -k RTR
r -t 0.458165782 -s 35 -d -1 -p message -e 32 -c 2 -a 0 -i 11 -k RTR
r -t 0.458165955 -s 23 -d -1 -p message -e 32 -c 2 -a 0 -i 11 -k RTR
r -t 0.458165955 -s 25 -d -1 -p message -e 32 -c 2 -a 0 -i 11 -k RTR
r -t 0.458166199 -s 14 -d -1 -p message -e 32 -c 2 -a 0 -i 11 -k RTR
r -t 0.458166199 -s 32 -d -1 -p message -e 32 -c 2 -a 0 -i 11 -k RTR
r -t 0.458166199 -s 36 -d -1 -p message -e 32 -c 2 -a 0 -i 11 -k RTR
+ -t 0.474672686 -s 27 -d -1 -p message -e 32 -c 2 -a 0 -i 12 -k RTR 
- -t 0.474672686 -s 27 -d -1 -p message -e 32 -c 2 -a 0 -i 12 -k RTR
h -t 0.474672686 -s 27 -d -1 -p message -e 32 -c 2 -a 0 -i 12 -k RTR
r -t 0.477123103 -s 17 -d -1 -p message -e 32 -c 2 -a 0 -i 12 -k RTR
r -t 0.477123103 -s 26 -d -1 -p message -e 32 -c 2 -a 0 -i 12 -k RTR
r -t 0.477123103 -s 37 -d -1 -p message -e 32 -c 2 -a 0 -i 12 -k RTR
r -t 0.477123103 -s 28 -d -1 -p message -e 32 -c 2 -a 0 -i 12 -k RTR
r -t 0.477123276 -s 36 -d -1 -p message -e 32 -c 2 -a 0 -i 12 -k RTR
r -t 0.477123276 -s 16 -d -1 -p message -e 32 -c 2 -a 0 -i 12 -k RTR
r -t 0.477123276 -s 18 -d -1 -p message -e 32 -c 2 -a 0 -i 12 -k RTR
r -t 0.477123276 -s 38 -d -1 -p message -e 32 -c 2 -a 0 -i 12 -k RTR
r -t 0.477123520 -s 7 -d -1 -p message -e 32 -c 2 -a 0 -i 12 -k RTR
r -t 0.477123520 -s 25 -d -1 -p message -e 32 -c 2 -a 0 -i 12 -k RTR
r -t 0.477123520 -s 29 -d -1 -p message -e 32 -c 2 -a 0 -i 12 -k RTR
+ -t 0.671962519 -s 14 -d -1 -p message -e 32 -c 2 -a 0 -i 13 -k RTR 
- -t 0.671962519 -s 14 -d -1 -p message -e 32 -c 2 -a 0 -i 13 -k RTR
h -t 0.671962519 -s 14 -d -1 -p message -e 32 -c 2 -a 0 -i 13 -k RTR
r -t 0.676652936 -s 4 -d -1 -p message -e 32 -c 2 -a 0 -i 13 -k RTR
r -t 0.676652936 -s 13 -d -1 -p message -e 32 -c 2 -a 0 -i 13 -k RTR
r -t 0.676652936 -s 24 -d -1 -p message -e 32 -c 2 -a 0 -i 13 -k RTR
r -t 0.676652936 -s 15 -d -1 -p message -e 32 -c 2 -a 0 -i 13 -k RTR
r -t 0.676653109 -s 23 -d -1 -p message -e 32 -c 2 -a 0 -i 13 -k RTR
r -t 0.676653109 -s 3 -d -1 -p message -e 32 -c 2 -a 0 -i 13 -k RTR
r -t 0.676653109 -s 5 -d -1 -p message -e 32 -c 2 -a 0 -i 13 -k RTR
r -t 0.676653109 -s 25 -d -1 -p message -e 32 -c 2 -a 0 -i 13 -k RTR
r -t 0.676653353 -s 12 -d -1 -p message -e 32 -c 2 -a 0 -i 13 -k RTR
r -t 0.676653353 -s 34 -d -1 -p message -e 32 -c 2 -a 0 -i 13 -k RTR
r -t 0.676653353 -s 16 -d -1 -p message -e 32 -c 2 -a 0 -i 13 -k RTR
+ -t 0.684226311 -s 37 -d -1 -p message -e 32 -c 2 -a 0 -i 14 -k RTR 
- -t 0.684226311 -s 37 -d -1 -p message -e 32 -c 2 -a 0 -i 14 -k RTR
h -t 0.684226311 -s 37 -d -1 -p message -e 32 -c 2 -a 0 -i 14 -k RTR
r -t 0.688276727 -s 27 -d -1 -p message -e 32 -c 2 -a 0 -i 14 -k RTR
r -t 0.688276727 -s 36 -d -1 -p message -e 32 -c 2 -a 0 -i 14 -k RTR
r -t 0.688276727 -s 38 -d -1 -p message -e 32 -c 2 -a 0 -i 14 -k RTR
r -t 0.688276900 -s 26 -d -1 -p message -e 32 -c 2 -a 0 -i 14 -k RTR
r -t 0.688276900 -s 28 -d -1 -p message -e 32 -c 2 -a 0 -i 14 -k RTR
r -t 0.688277144 -s 17 -d -1 -p message -e 32 -c 2 -a 0 -i 14 -k RTR
r -t 0.688277144 -s 35 -d -1 -p message -e 32 -c 2 -a 0 -i 14 -k RTR
r -t 0.688277144 -s 39 -d -1 -p message -e 32 -c 2 -a 0 -i 14 -k RTR
+ -t 0.820392893 -s 20 -d -1 -p message -e 32 -c 2 -a 0 -i 15 -k RTR 
- -t 0.820392893 -s 20 -d -1 -p message -e 32 -c 2 -a 0 -i 15 -k RTR
h -t 0.820392893 -s 20 -d -1 -p message -e 32 -c 2 -a 0 -i 15 -k RTR
r -t 0.824123309 -s 10 -d -1 -p message -e 32 -c 2 -a 0 -i 15 -k RTR
r -t 0.824123309 -s 30 -d -1 -p message -e 32 -c 2 -a 0 -i 15 -k RTR
r -t 0.824123309 -s 21 -d -1 -p message -e 32 -c 2 -a 0 -i 15 -k RTR
r -t 0.824123482 -s 11 -d -1 -p message -e 32 -c 2 -a 0 -i 15 -k RTR
r -t 0.824123482 -s 31 -d -1 -p message -e 32 -c 2 -a 0 -i 15 -k RTR
r -t 0.824123726 -s 0 -d -1 -p message -e 32 -c 2 -a 0 -i 15 -k RTR
r -t 0.824123726 -s 22 -d -1 -p message -e 32 -c 2 -a 0 -i 15 -k RTR
+ -t 0.850035071 -s 19 -d -1 -p message -e 32 -c 2 -a 0 -i 16 -k RTR 
- -t 0.850035071 -s 19 -d -1 -p message -e 32 -c 2 -a 0 -i 16 -k RTR
h -t 0.850035071 -s 19 -d -1 -p message -e 32 -c 2 -a 0 -i 16 -k RTR
r -t 0.854725487 -s 9 -d -1 -p message -e 32 -c 2 -a 0 -i 16 -k RTR
r -t 0.854725487 -s 18 -d -1 -p message -e 32 -c 2 -a 0 -i 16 -k RTR
r -t 0.854725487 -s 29 -d -1 -p message -e 32 -c 2 -a 0 -i 16 -k RTR
r -t 0.854725660 -s 28 -d -1 -p message -e 32 -c 2 -a 0 -i 16 -k RTR
r -t 0.854725660 -s 8 -d -1 -p message -e 32 -c 2 -a 0 -i 16 -k RTR
r -t 0.854725904 -s 17 -d -1 -p message -e 32 -c 2 -a 0 -i 16 -k RTR
r -t 0.854725904 -s 39 -d -1 -p message -e 32 -c 2 -a 0 -i 16 -k RTR
+ -t 0.869383415 -s 18 -d -1 -p message -e 32 -c 2 -a 0 -i 17 -k RTR 
- -t 0.869383415 -s 18 -d -1 -p message -e 32 -c 2 -a 0 -i 17 -k RTR
h -t 0.869383415 -s 18 -d -1 -p message -e 32 -c 2 -a 0 -i 17 -k RTR
r -t 0.872793832 -s 8 -d -1 -p message -e 32 -c 2 -a 0 -i 17 -k RTR
r -t 0.872793832 -s 17 -d -1 -p message -e 32 -c 2 -a 0 -i 17 -k RTR
r -t 0.872793832 -s 28 -d -1 -p message -e 32 -c 2 -a 0 -i 17 -k RTR
r -t 0.872793832 -s 19 -d -1 -p message -e 32 -c 2 -a 0 -i 17 -k RTR
r -t 0.872794005 -s 27 -d -1 -p message -e 32 -c 2 -a 0 -i 17 -k RTR
r -t 0.872794005 -s 7 -d -1 -p message -e 32 -c 2 -a 0 -i 17 -k RTR
r -t 0.872794005 -s 9 -d -1 -p message -e 32 -c 2 -a 0 -i 17 -k RTR
r -t 0.872794005 -s 29 -d -1 -p message -e 32 -c 2 -a 0 -i 17 -k RTR
r -t 0.872794249 -s 16 -d -1 -p message -e 32 -c 2 -a 0 -i 17 -k RTR
r -t 0.872794249 -s 38 -d -1 -p message -e 32 -c 2 -a 0 -i 17 -k RTR
+ -t 0.875205073 -s 13 -d -1 -p message -e 32 -c 2 -a 0 -i 18 -k RTR 
- -t 0.875205073 -s 13 -d -1 -p message -e 32 -c 2 -a 0 -i 18 -k RTR
h -t 0.875205073 -s 13 -d -1 -p message -e 32 -c 2 -a 0 -i 18 -k RTR
r -t 0.877975489 -s 3 -d -1 -p message -e 32 -c 2 -a 0 -i 18 -k RTR
r -t 0.877975489 -s 12 -d -1 -p message -e 32 -c 2 -a 0 -i 18 -k RTR
r -t 0.877975489 -s 23 -d -1 -p message -e 32 -c 2 -a 0 -i 18 -k RTR
r -t 0.877975489 -s 14 -d -1 -p message -e 32 -c 2 -a 0 -i 18 -k RTR
r -t 0.877975662 -s 22 -d -1 -p message -e 32 -c 2 -a 0 -i 18 -k RTR
r -t 0.877975662 -s 2 -d -1 -p message -e 32 -c 2 -a 0 -i 18 -k RTR
r -t 0.877975662 -s 4 -d -1 -p message -e 32 -c 2 -a 0 -i 18 -k RTR
r -t 0.877975662 -s 24 -d -1 -p message -e 32 -c 2 -a 0 -i 18 -k RTR
r -t 0.877975906 -s 11 -d -1 -p message -e 32 -c 2 -a 0 -i 18 -k RTR
r -t 0.877975906 -s 33 -d -1 -p message -e 32 -c 2 -a 0 -i 18 -k RTR
r -t 0.877975906 -s 15 -d -1 -p message -e 32 -c 2 -a 0 -i 18 -k RTR
+ -t 0.884601285 -s 12 -d -1 -p message -e 32 -c 2 -a 0 -i 19 -k RTR 
- -t 0.884601285 -s 12 -d -1 -p message -e 32 -c 2 -a 0 -i 19 -k RTR
h -t 0.884601285 -s 12 -d -1 -p message -e 32 -c 2 -a 0 -i 19 -k RTR
r -t 0.888971701 -s 2 -d -1 -p message -e 32 -c 2 -a 0 -i 19 -k RTR
r -t 0.888971701 -s 11 -d -1 -p message -e 32 -c 2 -a 0 -i 19 -k RTR
r -t 0.888971701 -s 22 -d -1 -p message -e 32 -c 2 -a 0 -i 19 -k RTR
r -t 0.888971701 -s 13 -d -1 -p message -e 32 -c 2 -a 0 -i 19 -k RTR
r -t 0.888971874 -s 21 -d -1 -p message -e 32 -c 2 -a 0 -i 19 -k RTR
r -t 0.888971874 -s 1 -d -1 -p message -e 32 -c 2 -a 0 -i 19 -k RTR
r -t 0.888971874 -s 3 -d -1 -p message -e 32 -c 2 -a 0 -i 19 -k RTR
r -t 0.888971874 -s 23 -d -1 -p message -e 32 -c 2 -a 0 -i 19 -k RTR
r -t 0.888972118 -s 10 -d -1 -p message -e 32 -c 2 -a 0 -i 19 -k RTR
r -t 0.888972118 -s 32 -d -1 -p message -e 32 -c 2 -a 0 -i 19 -k RTR
r -t 0.888972118 -s 14 -d -1 -p message -e 32 -c 2 -a 0 -i 19 -k RTR
+ -t 0.902722248 -s 9 -d -1 -p message -e 32 -c 2 -a 0 -i 20 -k RTR 
- -t 0.902722248 -s 9 -d -1 -p message -e 32 -c 2 -a 0 -i 20 -k RTR
h -t 0.902722248 -s 9 -d -1 -p message -e 32 -c 2 -a 0 -i 20 -k RTR
r -t 0.906452665 -s 8 -d -1 -p message -e 32 -c 2 -a 0 -i 20 -k RTR
r -t 0.906452665 -s 19 -d -1 -p message -e 32 -c 2 -a 0 -i 20 -k RTR
r -t 0.906452838 -s 18 -d -1 -p message -e 32 -c 2 -a 0 -i 20 -k RTR
r -t 0.906453082 -s 7 -d -1 -p message -e 32 -c 2 -a 0 -i 20 -k RTR
r -t 0.906453082 -s 29 -d -1 -p message -e 32 -c 2 -a 0 -i 20 -k RTR
+ -t 0.974422618 -s 22 -d -1 -p message -e 32 -c 2 -a 0 -i 21 -k RTR 
- -t 0.974422618 -s 22 -d -1 -p message -e 32 -c 2 -a 0 -i 21 -k RTR
h -t 0.974422618 -s 22 -d -1 -p message -e 32 -c 2 -a 0 -i 21 -k RTR
r -t 0.976873035 -s 12 -d -1 -p message -e 32 -c 2 -a 0 -i 21 -k RTR
r -t 0.976873035 -s 21 -d -1 -p message -e 32 -c 2 -a 0 -i 21 -k RTR
r -t 0.976873035 -s 32 -d -1 -p message -e 32 -c 2 -a 0 -i 21 -k RTR
r -t 0.976873035 -s 23 -d -1 -p message -e 32 -c 2 -a 0 -i 21 -k RTR
r -t 0.976873208 -s 31 -d -1 -p message -e 32 -c 2 -a 0 -i 21 -k RTR
r -t 0.976873208 -s 11 -d -1 -p message -e 32 -c 2 -a 0 -i 21 -k RTR
r -t 0.976873208 -s 13 -d -1 -p message -e 32 -c 2 -a 0 -i 21 -k RTR
r -t 0.976873208 -s 33 -d -1 -p message -e 32 -c 2 -a 0 -i 21 -k RTR
r -t 0.976873452 -s 2 -d -1 -p message -e 32 -c 2 -a 0 -i 21 -k RTR
r -t 0.976873452 -s 20 -d -1 -p message -e 32 -c 2 -a 0 -i 21 -k RTR
r -t 0.976873452 -s 24 -d -1 -p message -e 32 -c 2 -a 0 -i 21 -k RTR
+ -t 1.000000000 -s 0 -d -1 -p tcp -e 40 -c 2 -a 0 -i 22 -k AGT 
- -t 1.000000000 -s 0 -d -1 -p tcp -e 40 -c 2 -a 0 -i 22 -k AGT
h -t 1.000000000 -s 0 -d -1 -p tcp -e 40 -c 2 -a 0 -i 22 -k AGT
+ -t 1.000000000 -s 1 -d -1 -p tcp -e 40 -c 2 -a 0 -i 23 -k AGT 
- -t 1.000000000 -s 1 -d -1 -p tcp -e 40 -c 2 -a 0 -i 23 -k AGT
h -t 1.000000000 -s 1 -d -1 -p tcp -e 40 -c 2 -a 0 -i 23 -k AGT
+ -t 1.000000000 -s 2 -d -1 -p tcp -e 40 -c 2 -a 0 -i 24 -k AGT 
- -t 1.000000000 -s 2 -d -1 -p tcp -e 40 -c 2 -a 0 -i 24 -k AGT
h -t 1.000000000 -s 2 -d -1 -p tcp -e 40 -c 2 -a 0 -i 24 -k AGT
+ -t 1.000000000 -s 2 -d 3 -p tcp -e 60 -c 2 -a 0 -i 24 -k RTR 
- -t 1.000000000 -s 2 -d 3 -p tcp -e 60 -c 2 -a 0 -i 24 -k RTR
h -t 1.000000000 -s 2 -d 3 -p tcp -e 60 -c 2 -a 0 -i 24 -k RTR
+ -t 1.000000000 -s 3 -d -1 -p tcp -e 40 -c 2 -a 0 -i 25 -k AGT 
- -t 1.000000000 -s 3 -d -1 -p tcp -e 40 -c 2 -a 0 -i 25 -k AGT
h -t 1.000000000 -s 3 -d -1 -p tcp -e 40 -c 2 -a 0 -i 25 -k AGT
+ -t 1.000000000 -s 3 -d 4 -p tcp -e 60 -c 2 -a 0 -i 25 -k RTR 
- -t 1.000000000 -s 3 -d 4 -p tcp -e 60 -c 2 -a 0 -i 25 -k RTR
h -t 1.000000000 -s 3 -d 4 -p tcp -e 60 -c 2 -a 0 -i 25 -k RTR
+ -t 1.000000000 -s 4 -d -1 -p tcp -e 40 -c 2 -a 0 -i 26 -k AGT 
- -t 1.000000000 -s 4 -d -1 -p tcp -e 40 -c 2 -a 0 -i 26 -k AGT
h -t 1.000000000 -s 4 -d -1 -p tcp -e 40 -c 2 -a 0 -i 26 -k AGT
+ -t 1.000000000 -s 5 -d -1 -p tcp -e 40 -c 2 -a 0 -i 27 -k AGT 
- -t 1.000000000 -s 5 -d -1 -p tcp -e 40 -c 2 -a 0 -i 27 -k AGT
h -t 1.000000000 -s 5 -d -1 -p tcp -e 40 -c 2 -a 0 -i 27 -k AGT
+ -t 1.000000000 -s 6 -d -1 -p tcp -e 40 -c 2 -a 0 -i 28 -k AGT 
- -t 1.000000000 -s 6 -d -1 -p tcp -e 40 -c 2 -a 0 -i 28 -k AGT
h -t 1.000000000 -s 6 -d -1 -p tcp -e 40 -c 2 -a 0 -i 28 -k AGT
+ -t 1.000000000 -s 7 -d -1 -p tcp -e 40 -c 2 -a 0 -i 29 -k AGT 
- -t 1.000000000 -s 7 -d -1 -p tcp -e 40 -c 2 -a 0 -i 29 -k AGT
h -t 1.000000000 -s 7 -d -1 -p tcp -e 40 -c 2 -a 0 -i 29 -k AGT
+ -t 1.000000000 -s 8 -d -1 -p tcp -e 40 -c 2 -a 0 -i 30 -k AGT 
- -t 1.000000000 -s 8 -d -1 -p tcp -e 40 -c 2 -a 0 -i 30 -k AGT
h -t 1.000000000 -s 8 -d -1 -p tcp -e 40 -c 2 -a 0 -i 30 -k AGT
+ -t 1.000000000 -s 8 -d 9 -p tcp -e 60 -c 2 -a 0 -i 30 -k RTR 
- -t 1.000000000 -s 8 -d 9 -p tcp -e 60 -c 2 -a 0 -i 30 -k RTR
h -t 1.000000000 -s 8 -d 9 -p tcp -e 60 -c 2 -a 0 -i 30 -k RTR
+ -t 1.000000000 -s 9 -d -1 -p tcp -e 40 -c 2 -a 0 -i 31 -k AGT 
- -t 1.000000000 -s 9 -d -1 -p tcp -e 40 -c 2 -a 0 -i 31 -k AGT
h -t 1.000000000 -s 9 -d -1 -p tcp -e 40 -c 2 -a 0 -i 31 -k AGT
+ -t 1.000000000 -s 10 -d -1 -p tcp -e 40 -c 2 -a 0 -i 32 -k AGT 
- -t 1.000000000 -s 10 -d -1 -p tcp -e 40 -c 2 -a 0 -i 32 -k AGT
h -t 1.000000000 -s 10 -d -1 -p tcp -e 40 -c 2 -a 0 -i 32 -k AGT
+ -t 1.000000000 -s 10 -d 11 -p tcp -e 60 -c 2 -a 0 -i 32 -k RTR 
- -t 1.000000000 -s 10 -d 11 -p tcp -e 60 -c 2 -a 0 -i 32 -k RTR
h -t 1.000000000 -s 10 -d 11 -p tcp -e 60 -c 2 -a 0 -i 32 -k RTR
+ -t 1.000000000 -s 11 -d -1 -p tcp -e 40 -c 2 -a 0 -i 33 -k AGT 
- -t 1.000000000 -s 11 -d -1 -p tcp -e 40 -c 2 -a 0 -i 33 -k AGT
h -t 1.000000000 -s 11 -d -1 -p tcp -e 40 -c 2 -a 0 -i 33 -k AGT
+ -t 1.000000000 -s 11 -d 12 -p tcp -e 60 -c 2 -a 0 -i 33 -k RTR 
- -t 1.000000000 -s 11 -d 12 -p tcp -e 60 -c 2 -a 0 -i 33 -k RTR
h -t 1.000000000 -s 11 -d 12 -p tcp -e 60 -c 2 -a 0 -i 33 -k RTR
+ -t 1.000000000 -s 12 -d -1 -p tcp -e 40 -c 2 -a 0 -i 34 -k AGT 
- -t 1.000000000 -s 12 -d -1 -p tcp -e 40 -c 2 -a 0 -i 34 -k AGT
h -t 1.000000000 -s 12 -d -1 -p tcp -e 40 -c 2 -a 0 -i 34 -k AGT
+ -t 1.000000000 -s 12 -d 13 -p tcp -e 60 -c 2 -a 0 -i 34 -k RTR 
- -t 1.000000000 -s 12 -d 13 -p tcp -e 60 -c 2 -a 0 -i 34 -k RTR
h -t 1.000000000 -s 12 -d 13 -p tcp -e 60 -c 2 -a 0 -i 34 -k RTR
+ -t 1.000000000 -s 13 -d -1 -p tcp -e 40 -c 2 -a 0 -i 35 -k AGT 
- -t 1.000000000 -s 13 -d -1 -p tcp -e 40 -c 2 -a 0 -i 35 -k AGT
h -t 1.000000000 -s 13 -d -1 -p tcp -e 40 -c 2 -a 0 -i 35 -k AGT
+ -t 1.000000000 -s 13 -d 14 -p tcp -e 60 -c 2 -a 0 -i 35 -k RTR 
- -t 1.000000000 -s 13 -d 14 -p tcp -e 60 -c 2 -a 0 -i 35 -k RTR
h -t 1.000000000 -s 13 -d 14 -p tcp -e 60 -c 2 -a 0 -i 35 -k RTR
+ -t 1.000000000 -s 14 -d -1 -p tcp -e 40 -c 2 -a 0 -i 36 -k AGT 
- -t 1.000000000 -s 14 -d -1 -p tcp -e 40 -c 2 -a 0 -i 36 -k AGT
h -t 1.000000000 -s 14 -d -1 -p tcp -e 40 -c 2 -a 0 -i 36 -k AGT
+ -t 1.000000000 -s 14 -d 15 -p tcp -e 60 -c 2 -a 0 -i 36 -k RTR 
- -t 1.000000000 -s 14 -d 15 -p tcp -e 60 -c 2 -a 0 -i 36 -k RTR
h -t 1.000000000 -s 14 -d 15 -p tcp -e 60 -c 2 -a 0 -i 36 -k RTR
+ -t 1.000000000 -s 15 -d -1 -p tcp -e 40 -c 2 -a 0 -i 37 -k AGT 
- -t 1.000000000 -s 15 -d -1 -p tcp -e 40 -c 2 -a 0 -i 37 -k AGT
h -t 1.000000000 -s 15 -d -1 -p tcp -e 40 -c 2 -a 0 -i 37 -k AGT
+ -t 1.000000000 -s 16 -d -1 -p tcp -e 40 -c 2 -a 0 -i 38 -k AGT 
- -t 1.000000000 -s 16 -d -1 -p tcp -e 40 -c 2 -a 0 -i 38 -k AGT
h -t 1.000000000 -s 16 -d -1 -p tcp -e 40 -c 2 -a 0 -i 38 -k AGT
+ -t 1.000000000 -s 16 -d 17 -p tcp -e 60 -c 2 -a 0 -i 38 -k RTR 
- -t 1.000000000 -s 16 -d 17 -p tcp -e 60 -c 2 -a 0 -i 38 -k RTR
h -t 1.000000000 -s 16 -d 17 -p tcp -e 60 -c 2 -a 0 -i 38 -k RTR
+ -t 1.000000000 -s 17 -d -1 -p tcp -e 40 -c 2 -a 0 -i 39 -k AGT 
- -t 1.000000000 -s 17 -d -1 -p tcp -e 40 -c 2 -a 0 -i 39 -k AGT
h -t 1.000000000 -s 17 -d -1 -p tcp -e 40 -c 2 -a 0 -i 39 -k AGT
+ -t 1.000000000 -s 17 -d 18 -p tcp -e 60 -c 2 -a 0 -i 39 -k RTR 
- -t 1.000000000 -s 17 -d 18 -p tcp -e 60 -c 2 -a 0 -i 39 -k RTR
h -t 1.000000000 -s 17 -d 18 -p tcp -e 60 -c 2 -a 0 -i 39 -k RTR
+ -t 1.000000000 -s 18 -d -1 -p tcp -e 40 -c 2 -a 0 -i 40 -k AGT 
- -t 1.000000000 -s 18 -d -1 -p tcp -e 40 -c 2 -a 0 -i 40 -k AGT
h -t 1.000000000 -s 18 -d -1 -p tcp -e 40 -c 2 -a 0 -i 40 -k AGT
+ -t 1.000000000 -s 18 -d 19 -p tcp -e 60 -c 2 -a 0 -i 40 -k RTR 
- -t 1.000000000 -s 18 -d 19 -p tcp -e 60 -c 2 -a 0 -i 40 -k RTR
h -t 1.000000000 -s 18 -d 19 -p tcp -e 60 -c 2 -a 0 -i 40 -k RTR
+ -t 1.000000000 -s 19 -d -1 -p tcp -e 40 -c 2 -a 0 -i 41 -k AGT 
- -t 1.000000000 -s 19 -d -1 -p tcp -e 40 -c 2 -a 0 -i 41 -k AGT
h -t 1.000000000 -s 19 -d -1 -p tcp -e 40 -c 2 -a 0 -i 41 -k AGT
r -t 1.009470417 -s 12 -d 12 -p tcp -e 60 -c 2 -a 0 -i 33 -k AGT
+ -t 1.009470417 -s 12 -d -1 -p ack -e 40 -c 2 -a 0 -i 42 -k AGT 
- -t 1.009470417 -s 12 -d -1 -p ack -e 40 -c 2 -a 0 -i 42 -k AGT
h -t 1.009470417 -s 12 -d -1 -p ack -e 40 -c 2 -a 0 -i 42 -k AGT
+ -t 1.009470417 -s 12 -d 11 -p ack -e 60 -c 2 -a 0 -i 42 -k RTR 
- -t 1.009470417 -s 12 -d 11 -p ack -e 60 -c 2 -a 0 -i 42 -k RTR
h -t 1.009470417 -s 12 -d 11 -p ack -e 60 -c 2 -a 0 -i 42 -k RTR
r -t 1.012931833 -s 17 -d 17 -p tcp -e 60 -c 2 -a 0 -i 38 -k AGT
+ -t 1.012931833 -s 17 -d -1 -p ack -e 40 -c 2 -a 0 -i 43 -k AGT 
- -t 1.012931833 -s 17 -d -1 -p ack -e 40 -c 2 -a 0 -i 43 -k AGT
h -t 1.012931833 -s 17 -d -1 -p ack -e 40 -c 2 -a 0 -i 43 -k AGT
r -t 1.013118417 -s 11 -d 11 -p tcp -e 60 -c 2 -a 0 -i 32 -k AGT
+ -t 1.013118417 -s 11 -d -1 -p ack -e 40 -c 2 -a 0 -i 44 -k AGT 
- -t 1.013118417 -s 11 -d -1 -p ack -e 40 -c 2 -a 0 -i 44 -k AGT
h -t 1.013118417 -s 11 -d -1 -p ack -e 40 -c 2 -a 0 -i 44 -k AGT
+ -t 1.013118417 -s 11 -d 10 -p ack -e 60 -c 2 -a 0 -i 44 -k RTR 
- -t 1.013118417 -s 11 -d 10 -p ack -e 60 -c 2 -a 0 -i 44 -k RTR
h -t 1.013118417 -s 11 -d 10 -p ack -e 60 -c 2 -a 0 -i 44 -k RTR
d -t 1.029413417 -s 12 -d 13 -p tcp -e 60 -c 2 -a 0 -i 34 -k RTR
r -t 1.031587833 -s 3 -d 3 -p tcp -e 60 -c 2 -a 0 -i 24 -k AGT
+ -t 1.031587833 -s 3 -d -1 -p ack -e 40 -c 2 -a 0 -i 45 -k AGT 
- -t 1.031587833 -s 3 -d -1 -p ack -e 40 -c 2 -a 0 -i 45 -k AGT
h -t 1.031587833 -s 3 -d -1 -p ack -e 40 -c 2 -a 0 -i 45 -k AGT
r -t 1.036158833 -s 10 -d 10 -p ack -e 60 -c 2 -a 0 -i 44 -k AGT
+ -t 1.036158833 -s 10 -d -1 -p tcp -e 1040 -c 2 -a 0 -i 46 -k AGT 
- -t 1.036158833 -s 10 -d -1 -p tcp -e 1040 -c 2 -a 0 -i 46 -k AGT
h -t 1.036158833 -s 10 -d -1 -p tcp -e 1040 -c 2 -a 0 -i 46 -k AGT
+ -t 1.036158833 -s 10 -d 11 -p tcp -e 1060 -c 2 -a 0 -i 46 -k RTR 
- -t 1.036158833 -s 10 -d 11 -p tcp -e 1060 -c 2 -a 0 -i 46 -k RTR
h -t 1.036158833 -s 10 -d 11 -p tcp -e 1060 -c 2 -a 0 -i 46 -k RTR
+ -t 1.036158833 -s 10 -d -1 -p tcp -e 1040 -c 2 -a 0 -i 47 -k AGT 
- -t 1.036158833 -s 10 -d -1 -p tcp -e 1040 -c 2 -a 0 -i 47 -k AGT
h -t 1.036158833 -s 10 -d -1 -p tcp -e 1040 -c 2 -a 0 -i 47 -k AGT
+ -t 1.036158833 -s 10 -d 11 -p tcp -e 1060 -c 2 -a 0 -i 47 -k RTR 
- -t 1.036158833 -s 10 -d 11 -p tcp -e 1060 -c 2 -a 0 -i 47 -k RTR
h -t 1.036158833 -s 10 -d 11 -p tcp -e 1060 -c 2 -a 0 -i 47 -k RTR
r -t 1.042821083 -s 11 -d 11 -p ack -e 60 -c 2 -a 0 -i 42 -k AGT
+ -t 1.042821083 -s 11 -d -1 -p tcp -e 1040 -c 2 -a 0 -i 49 -k AGT 
- -t 1.042821083 -s 11 -d -1 -p tcp -e 1040 -c 2 -a 0 -i 49 -k AGT
h -t 1.042821083 -s 11 -d -1 -p tcp -e 1040 -c 2 -a 0 -i 49 -k AGT
+ -t 1.042821083 -s 11 -d 12 -p tcp -e 1060 -c 2 -a 0 -i 49 -k RTR 
- -t 1.042821083 -s 11 -d 12 -p tcp -e 1060 -c 2 -a 0 -i 49 -k RTR
h -t 1.042821083 -s 11 -d 12 -p tcp -e 1060 -c 2 -a 0 -i 49 -k RTR
+ -t 1.042821083 -s 11 -d -1 -p tcp -e 1040 -c 2 -a 0 -i 50 -k AGT 
- -t 1.042821083 -s 11 -d -1 -p tcp -e 1040 -c 2 -a 0 -i 50 -k AGT
h -t 1.042821083 -s 11 -d -1 -p tcp -e 1040 -c 2 -a 0 -i 50 -k AGT
+ -t 1.042821083 -s 11 -d 12 -p tcp -e 1060 -c 2 -a 0 -i 50 -k RTR 
- -t 1.042821083 -s 11 -d 12 -p tcp -e 1060 -c 2 -a 0 -i 50 -k RTR
h -t 1.042821083 -s 11 -d 12 -p tcp -e 1060 -c 2 -a 0 -i 50 -k RTR
r -t 1.045617250 -s 11 -d 11 -p tcp -e 36 -c 2 -a 0 -i 46 -k AGT
+ -t 1.045617250 -s 11 -d -1 -p ack -e 40 -c 2 -a 0 -i 51 -k AGT 
- -t 1.045617250 -s 11 -d -1 -p ack -e 40 -c 2 -a 0 -i 51 -k AGT