n -t * -s 0  -x 0 -y 0 -Z 0 -z 20  -v circle -c green
n -t * -s 1  -x 12 -y 12 -Z 0 -z 20  -v circle -c green
n -t * -s 2  -x 25 -y 25 -Z 0 -z 20  -v circle -c green
n -t * -s 3  -x 37 -y 37 -Z 0 -z 20  -v circle -c green
n -t * -s 4  -x 50 -y 50 -Z 0 -z 20  -v circle -c green
n -t * -s 5  -x 62 -y 62 -Z 0 -z 20  -v circle -c green
n -t * -s 6  -x 75 -y 75 -Z 0 -z 20  -v circle -c green
n -t * -s 7  -x 87 -y 87 -Z 0 -z 20  -v circle -c green
n -t * -s 8  -x 100 -y 100 -Z 0 -z 20  -v circle -c green
n -t * -s 9  -x 112 -y 112 -Z 0 -z 20  -v circle -c green
n -t * -s 10  -x 125 -y 125 -Z 0 -z 20  -v circle -c green
n -t * -s 11  -x 137 -y 137 -Z 0 -z 20  -v circle -c green
n -t * -s 12  -x 150 -y 150 -Z 0 -z 20  -v circle -c green
n -t * -s 13  -x 162 -y 162 -Z 0 -z 20  -v circle -c green
n -t * -s 14  -x 175 -y 175 -Z 0 -z 20  -v circle -c green
n -t * -s 15  -x 187 -y 187 -Z 0 -z 20  -v circle -c green
n -t * -s 16  -x 200 -y 200 -Z 0 -z 20  -v circle -c green
n -t * -s 17  -x 212 -y 212 -Z 0 -z 20  -v circle -c green
n -t * -s 18  -x 225 -y 225 -Z 0 -z 20  -v circle -c green
n -t * -s 19  -x 237 -y 237 -Z 0 -z 20  -v circle -c green
n -t * -s 20  -x 250 -y 250 -Z 0 -z 20  -v circle -c green
n -t * -s 21  -x 262 -y 262 -Z 0 -z 20  -v circle -c green
n -t * -s 22  -x 275 -y 275 -Z 0 -z 20  -v circle -c green
n -t * -s 23  -x 287 -y 287 -Z 0 -z 20  -v circle -c green
n -t * -s 24  -x 300 -y 300 -Z 0 -z 20  -v circle -c green
n -t * -s 25  -x 312 -y 312 -Z 0 -z 20  -v circle -c green
n -t * -s 26  -x 325 -y 325 -Z 0 -z 20  -v circle -c green
n -t * -s 27  -x 337 -y 337 -Z 0 -z 20  -v circle -c green
n -t * -s 28  -x 350 -y 350 -Z 0 -z 20  -v circle -c green
n -t * -s 29  -x 362 -y 362 -Z 0 -z 20  -v circle -c green
n -t * -s 30  -x 375 -y 375 -Z 0 -z 20  -v circle -c green
n -t * -s 31  -x 387 -y 387 -Z 0 -z 20  -v circle -c green
n -t * -s 32  -x 400 -y 400 -Z 0 -z 20  -v circle -c green
n -t * -s 33  -x 412 -y 412 -Z 0 -z 20  -v circle -c green
n -t * -s 34  -x 425 -y 425 -Z 0 -z 20  -v circle -c green
n -t * -s 35  -x 437 -y 437 -Z 0 -z 20  -v circle -c green
n -t * -s 36  -x 450 -y 450 -Z 0 -z 20  -v circle -c green
n -t * -s 37  -x 462 -y 462 -Z 0 -z 20  -v circle -c green
n -t * -s 38  -x 475 -y 475 -Z 0 -z 20  -v circle -c green
n -t * -s 39  -x 487 -y 487 -Z 0 -z 20  -v circle -c green
V -t * -v 1.0a5 -a 0
W -t * -x 500 -y 500
A -t * -n 1 -p 0 -o 0x7fffffff -c 30 -a 1
A -t * -h 1 -m 1073741823 -s 0
+ -t 0.036328457 -s 11 -d -1 -p message -e 32 -c 2 -a 0 -i 0 -k RTR 
- -t 0.036328457 -s 11 -d -1 -p message -e 32 -c 2 -a 0 -i 0 -k RTR
h -t 0.036328457 -s 11 -d -1 -p message -e 32 -c 2 -a 0 -i 0 -k RTR
r -t 0.038778514 -s 10 -d -1 -p message -e 32 -c 2 -a 0 -i 0 -k RTR
r -t 0.038778518 -s 12 -d -1 -p message -e 32 -c 2 -a 0 -i 0 -k RTR
r -t 0.038778575 -s 9 -d -1 -p message -e 32 -c 2 -a 0 -i 0 -k RTR
r -t 0.038778575 -s 13 -d -1 -p message -e 32 -c 2 -a 0 -i 0 -k RTR
r -t 0.038778632 -s 8 -d -1 -p message -e 32 -c 2 -a 0 -i 0 -k RTR
r -t 0.038778636 -s 14 -d -1 -p message -e 32 -c 2 -a 0 -i 0 -k RTR
r -t 0.038778693 -s 7 -d -1 -p message -e 32 -c 2 -a 0 -i 0 -k RTR
r -t 0.038778693 -s 15 -d -1 -p message -e 32 -c 2 -a 0 -i 0 -k RTR
r -t 0.038778749 -s 6 -d -1 -p message -e 32 -c 2 -a 0 -i 0 -k RTR
r -t 0.038778754 -s 16 -d -1 -p message -e 32 -c 2 -a 0 -i 0 -k RTR
r -t 0.038778811 -s 5 -d -1 -p message -e 32 -c 2 -a 0 -i 0 -k RTR
r -t 0.038778811 -s 17 -d -1 -p message -e 32 -c 2 -a 0 -i 0 -k RTR
r -t 0.038778867 -s 4 -d -1 -p message -e 32 -c 2 -a 0 -i 0 -k RTR
r -t 0.038778872 -s 18 -d -1 -p message -e 32 -c 2 -a 0 -i 0 -k RTR
r -t 0.038778929 -s 3 -d -1 -p message -e 32 -c 2 -a 0 -i 0 -k RTR
r -t 0.038778929 -s 19 -d -1 -p message -e 32 -c 2 -a 0 -i 0 -k RTR
r -t 0.038778985 -s 2 -d -1 -p message -e 32 -c 2 -a 0 -i 0 -k RTR
r -t 0.038778990 -s 20 -d -1 -p message -e 32 -c 2 -a 0 -i 0 -k RTR
r -t 0.038779046 -s 1 -d -1 -p message -e 32 -c 2 -a 0 -i 0 -k RTR
r -t 0.038779046 -s 21 -d -1 -p message -e 32 -c 2 -a 0 -i 0 -k RTR
r -t 0.038779103 -s 0 -d -1 -p message -e 32 -c 2 -a 0 -i 0 -k RTR
r -t 0.038779108 -s 22 -d -1 -p message -e 32 -c 2 -a 0 -i 0 -k RTR
r -t 0.038779164 -s 23 -d -1 -p message -e 32 -c 2 -a 0 -i 0 -k RTR
r -t 0.038779225 -s 24 -d -1 -p message -e 32 -c 2 -a 0 -i 0 -k RTR
r -t 0.038779282 -s 25 -d -1 -p message -e 32 -c 2 -a 0 -i 0 -k RTR
+ -t 0.073282045 -s 4 -d -1 -p message -e 32 -c 2 -a 0 -i 1 -k RTR 
- -t 0.073282045 -s 4 -d -1 -p message -e 32 -c 2 -a 0 -i 1 -k RTR
h -t 0.073282045 -s 4 -d -1 -p message -e 32 -c 2 -a 0 -i 1 -k RTR
r -t 0.076692102 -s 5 -d -1 -p message -e 32 -c 2 -a 0 -i 1 -k RTR
r -t 0.076692106 -s 3 -d -1 -p message -e 32 -c 2 -a 0 -i 1 -k RTR
r -t 0.076692163 -s 2 -d -1 -p message -e 32 -c 2 -a 0 -i 1 -k RTR
r -t 0.076692163 -s 6 -d -1 -p message -e 32 -c 2 -a 0 -i 1 -k RTR
r -t 0.076692219 -s 7 -d -1 -p message -e 32 -c 2 -a 0 -i 1 -k RTR
r -t 0.076692224 -s 1 -d -1 -p message -e 32 -c 2 -a 0 -i 1 -k RTR
r -t 0.076692281 -s 0 -d -1 -p message -e 32 -c 2 -a 0 -i 1 -k RTR
r -t 0.076692281 -s 8 -d -1 -p message -e 32 -c 2 -a 0 -i 1 -k RTR
r -t 0.076692337 -s 9 -d -1 -p message -e 32 -c 2 -a 0 -i 1 -k RTR
r -t 0.076692399 -s 10 -d -1 -p message -e 32 -c 2 -a 0 -i 1 -k RTR
r -t 0.076692455 -s 11 -d -1 -p message -e 32 -c 2 -a 0 -i 1 -k RTR
r -t 0.076692516 -s 12 -d -1 -p message -e 32 -c 2 -a 0 -i 1 -k RTR
r -t 0.076692573 -s 13 -d -1 -p message -e 32 -c 2 -a 0 -i 1 -k RTR
r -t 0.076692634 -s 14 -d -1 -p message -e 32 -c 2 -a 0 -i 1 -k RTR
r -t 0.076692691 -s 15 -d -1 -p message -e 32 -c 2 -a 0 -i 1 -k RTR
r -t 0.076692752 -s 16 -d -1 -p message -e 32 -c 2 -a 0 -i 1 -k RTR
r -t 0.076692809 -s 17 -d -1 -p message -e 32 -c 2 -a 0 -i 1 -k RTR
r -t 0.076692870 -s 18 -d -1 -p message -e 32 -c 2 -a 0 -i 1 -k RTR
+ -t 0.088584275 -s 31 -d -1 -p message -e 32 -c 2 -a 0 -i 2 -k RTR 
- -t 0.088584275 -s 31 -d -1 -p message -e 32 -c 2 -a 0 -i 2 -k RTR
h -t 0.088584275 -s 31 -d -1 -p message -e 32 -c 2 -a 0 -i 2 -k RTR
r -t 0.092634331 -s 30 -d -1 -p message -e 32 -c 2 -a 0 -i 2 -k RTR
r -t 0.092634336 -s 32 -d -1 -p message -e 32 -c 2 -a 0 -i 2 -k RTR
r -t 0.092634393 -s 29 -d -1 -p message -e 32 -c 2 -a 0 -i 2 -k RTR
r -t 0.092634393 -s 33 -d -1 -p message -e 32 -c 2 -a 0 -i 2 -k RTR
r -t 0.092634449 -s 28 -d -1 -p message -e 32 -c 2 -a 0 -i 2 -k RTR
r -t 0.092634454 -s 34 -d -1 -p message -e 32 -c 2 -a 0 -i 2 -k RTR
r -t 0.092634510 -s 27 -d -1 -p message -e 32 -c 2 -a 0 -i 2 -k RTR
r -t 0.092634510 -s 35 -d -1 -p message -e 32 -c 2 -a 0 -i 2 -k RTR
r -t 0.092634567 -s 26 -d -1 -p message -e 32 -c 2 -a 0 -i 2 -k RTR
r -t 0.092634572 -s 36 -d -1 -p message -e 32 -c 2 -a 0 -i 2 -k RTR
r -t 0.092634628 -s 25 -d -1 -p message -e 32 -c 2 -a 0 -i 2 -k RTR
r -t 0.092634628 -s 37 -d -1 -p message -e 32 -c 2 -a 0 -i 2 -k RTR
r -t 0.092634685 -s 24 -d -1 -p message -e 32 -c 2 -a 0 -i 2 -k RTR
r -t 0.092634690 -s 38 -d -1 -p message -e 32 -c 2 -a 0 -i 2 -k RTR
r -t 0.092634746 -s 23 -d -1 -p message -e 32 -c 2 -a 0 -i 2 -k RTR
r -t 0.092634746 -s 39 -d -1 -p message -e 32 -c 2 -a 0 -i 2 -k RTR
r -t 0.092634803 -s 22 -d -1 -p message -e 32 -c 2 -a 0 -i 2 -k RTR
r -t 0.092634864 -s 21 -d -1 -p message -e 32 -c 2 -a 0 -i 2 -k RTR
r -t 0.092634921 -s 20 -d -1 -p message -e 32 -c 2 -a 0 -i 2 -k RTR
r -t 0.092634982 -s 19 -d -1 -p message -e 32 -c 2 -a 0 -i 2 -k RTR
r -t 0.092635038 -s 18 -d -1 -p message -e 32 -c 2 -a 0 -i 2 -k RTR
r -t 0.092635100 -s 17 -d -1 -p message -e 32 -c 2 -a 0 -i 2 -k RTR
+ -t 0.126846076 -s 36 -d -1 -p message -e 32 -c 2 -a 0 -i 3 -k RTR 
- -t 0.126846076 -s 36 -d -1 -p message -e 32 -c 2 -a 0 -i 3 -k RTR
h -t 0.126846076 -s 36 -d -1 -p message -e 32 -c 2 -a 0 -i 3 -k RTR
+ -t 0.129642904 -s 28 -d -1 -p message -e 32 -c 2 -a 0 -i 4 -k RTR 
- -t 0.129642904 -s 28 -d -1 -p message -e 32 -c 2 -a 0 -i 4 -k RTR
h -t 0.129642904 -s 28 -d -1 -p message -e 32 -c 2 -a 0 -i 4 -k RTR
r -t 0.130896132 -s 37 -d -1 -p message -e 32 -c 2 -a 0 -i 3 -k RTR
r -t 0.130896137 -s 35 -d -1 -p message -e 32 -c 2 -a 0 -i 3 -k RTR
r -t 0.130896194 -s 34 -d -1 -p message -e 32 -c 2 -a 0 -i 3 -k RTR
r -t 0.130896194 -s 38 -d -1 -p message -e 32 -c 2 -a 0 -i 3 -k RTR
r -t 0.130896250 -s 39 -d -1 -p message -e 32 -c 2 -a 0 -i 3 -k RTR
r -t 0.130896255 -s 33 -d -1 -p message -e 32 -c 2 -a 0 -i 3 -k RTR
r -t 0.130896312 -s 32 -d -1 -p message -e 32 -c 2 -a 0 -i 3 -k RTR
r -t 0.130896373 -s 31 -d -1 -p message -e 32 -c 2 -a 0 -i 3 -k RTR
r -t 0.130896429 -s 30 -d -1 -p message -e 32 -c 2 -a 0 -i 3 -k RTR
r -t 0.130896491 -s 29 -d -1 -p message -e 32 -c 2 -a 0 -i 3 -k RTR
r -t 0.130896547 -s 28 -d -1 -p message -e 32 -c 2 -a 0 -i 3 -k RTR
r -t 0.130896609 -s 27 -d -1 -p message -e 32 -c 2 -a 0 -i 3 -k RTR
r -t 0.130896665 -s 26 -d -1 -p message -e 32 -c 2 -a 0 -i 3 -k RTR
r -t 0.130896726 -s 25 -d -1 -p message -e 32 -c 2 -a 0 -i 3 -k RTR
r -t 0.130896783 -s 24 -d -1 -p message -e 32 -c 2 -a 0 -i 3 -k RTR
r -t 0.130896844 -s 23 -d -1 -p message -e 32 -c 2 -a 0 -i 3 -k RTR
r -t 0.130896901 -s 22 -d -1 -p message -e 32 -c 2 -a 0 -i 3 -k RTR
r -t 0.133372961 -s 29 -d -1 -p message -e 32 -c 2 -a 0 -i 4 -k RTR
r -t 0.133372966 -s 27 -d -1 -p message -e 32 -c 2 -a 0 -i 4 -k RTR
r -t 0.133373022 -s 26 -d -1 -p message -e 32 -c 2 -a 0 -i 4 -k RTR
r -t 0.133373022 -s 30 -d -1 -p message -e 32 -c 2 -a 0 -i 4 -k RTR
r -t 0.133373079 -s 31 -d -1 -p message -e 32 -c 2 -a 0 -i 4 -k RTR
r -t 0.133373083 -s 25 -d -1 -p message -e 32 -c 2 -a 0 -i 4 -k RTR
r -t 0.133373140 -s 24 -d -1 -p message -e 32 -c 2 -a 0 -i 4 -k RTR
r -t 0.133373140 -s 32 -d -1 -p message -e 32 -c 2 -a 0 -i 4 -k RTR
r -t 0.133373197 -s 33 -d -1 -p message -e 32 -c 2 -a 0 -i 4 -k RTR
r -t 0.133373201 -s 23 -d -1 -p message -e 32 -c 2 -a 0 -i 4 -k RTR
r -t 0.133373258 -s 22 -d -1 -p message -e 32 -c 2 -a 0 -i 4 -k RTR
r -t 0.133373258 -s 34 -d -1 -p message -e 32 -c 2 -a 0 -i 4 -k RTR
r -t 0.133373314 -s 35 -d -1 -p message -e 32 -c 2 -a 0 -i 4 -k RTR
r -t 0.133373319 -s 21 -d -1 -p message -e 32 -c 2 -a 0 -i 4 -k RTR
r -t 0.133373376 -s 20 -d -1 -p message -e 32 -c 2 -a 0 -i 4 -k RTR
r -t 0.133373376 -s 36 -d -1 -p message -e 32 -c 2 -a 0 -i 4 -k RTR
r -t 0.133373432 -s 37 -d -1 -p message -e 32 -c 2 -a 0 -i 4 -k RTR
r -t 0.133373437 -s 19 -d -1 -p message -e 32 -c 2 -a 0 -i 4 -k RTR
r -t 0.133373494 -s 18 -d -1 -p message -e 32 -c 2 -a 0 -i 4 -k RTR
r -t 0.133373494 -s 38 -d -1 -p message -e 32 -c 2 -a 0 -i 4 -k RTR
r -t 0.133373550 -s 39 -d -1 -p message -e 32 -c 2 -a 0 -i 4 -k RTR
r -t 0.133373555 -s 17 -d -1 -p message -e 32 -c 2 -a 0 -i 4 -k RTR
r -t 0.133373611 -s 16 -d -1 -p message -e 32 -c 2 -a 0 -i 4 -k RTR
r -t 0.133373673 -s 15 -d -1 -p message -e 32 -c 2 -a 0 -i 4 -k RTR
r -t 0.133373729 -s 14 -d -1 -p message -e 32 -c 2 -a 0 -i 4 -k RTR
+ -t 0.247164037 -s 15 -d -1 -p message -e 32 -c 2 -a 0 -i 5 -k RTR 
- -t 0.247164037 -s 15 -d -1 -p message -e 32 -c 2 -a 0 -i 5 -k RTR
h -t 0.247164037 -s 15 -d -1 -p message -e 32 -c 2 -a 0 -i 5 -k RTR
r -t 0.250574093 -s 14 -d -1 -p message -e 32 -c 2 -a 0 -i 5 -k RTR
r -t 0.250574098 -s 16 -d -1 -p message -e 32 -c 2 -a 0 -i 5 -k RTR
r -t 0.250574155 -s 13 -d -1 -p message -e 32 -c 2 -a 0 -i 5 -k RTR
r -t 0.250574155 -s 17 -d -1 -p message -e 32 -c 2 -a 0 -i 5 -k RTR
r -t 0.250574211 -s 12 -d -1 -p message -e 32 -c 2 -a 0 -i 5 -k RTR
r -t 0.250574216 -s 18 -d -1 -p message -e 32 -c 2 -a 0 -i 5 -k RTR
r -t 0.250574272 -s 11 -d -1 -p message -e 32 -c 2 -a 0 -i 5 -k RTR
r -t 0.250574272 -s 19 -d -1 -p message -e 32 -c 2 -a 0 -i 5 -k RTR
r -t 0.250574329 -s 10 -d -1 -p message -e 32 -c 2 -a 0 -i 5 -k RTR
r -t 0.250574334 -s 20 -d -1 -p message -e 32 -c 2 -a 0 -i 5 -k RTR
r -t 0.250574390 -s 9 -d -1 -p message -e 32 -c 2 -a 0 -i 5 -k RTR
r -t 0.250574390 -s 21 -d -1 -p message -e 32 -c 2 -a 0 -i 5 -k RTR
r -t 0.250574447 -s 8 -d -1 -p message -e 32 -c 2 -a 0 -i 5 -k RTR
r -t 0.250574452 -s 22 -d -1 -p message -e 32 -c 2 -a 0 -i 5 -k RTR
r -t 0.250574508 -s 7 -d -1 -p message -e 32 -c 2 -a 0 -i 5 -k RTR
r -t 0.250574508 -s 23 -d -1 -p message -e 32 -c 2 -a 0 -i 5 -k RTR
r -t 0.250574565 -s 6 -d -1 -p message -e 32 -c 2 -a 0 -i 5 -k RTR
r -t 0.250574569 -s 24 -d -1 -p message -e 32 -c 2 -a 0 -i 5 -k RTR
r -t 0.250574626 -s 5 -d -1 -p message -e 32 -c 2 -a 0 -i 5 -k RTR
r -t 0.250574626 -s 25 -d -1 -p message -e 32 -c 2 -a 0 -i 5 -k RTR
r -t 0.250574683 -s 4 -d -1 -p message -e 32 -c 2 -a 0 -i 5 -k RTR
r -t 0.250574687 -s 26 -d -1 -p message -e 32 -c 2 -a 0 -i 5 -k RTR
r -t 0.250574744 -s 3 -d -1 -p message -e 32 -c 2 -a 0 -i 5 -k RTR
r -t 0.250574744 -s 27 -d -1 -p message -e 32 -c 2 -a 0 -i 5 -k RTR
r -t 0.250574800 -s 2 -d -1 -p message -e 32 -c 2 -a 0 -i 5 -k RTR
r -t 0.250574805 -s 28 -d -1 -p message -e 32 -c 2 -a 0 -i 5 -k RTR
r -t 0.250574862 -s 1 -d -1 -p message -e 32 -c 2 -a 0 -i 5 -k RTR
r -t 0.250574862 -s 29 -d -1 -p message -e 32 -c 2 -a 0 -i 5 -k RTR
+ -t 0.321822596 -s 26 -d -1 -p message -e 32 -c 2 -a 0 -i 6 -k RTR 
- -t 0.321822596 -s 26 -d -1 -p message -e 32 -c 2 -a 0 -i 6 -k RTR
h -t 0.321822596 -s 26 -d -1 -p message -e 32 -c 2 -a 0 -i 6 -k RTR
r -t 0.324272653 -s 27 -d -1 -p message -e 32 -c 2 -a 0 -i 6 -k RTR
r -t 0.324272658 -s 25 -d -1 -p message -e 32 -c 2 -a 0 -i 6 -k RTR
r -t 0.324272714 -s 24 -d -1 -p message -e 32 -c 2 -a 0 -i 6 -k RTR
r -t 0.324272714 -s 28 -d -1 -p message -e 32 -c 2 -a 0 -i 6 -k RTR
r -t 0.324272771 -s 29 -d -1 -p message -e 32 -c 2 -a 0 -i 6 -k RTR
r -t 0.324272776 -s 23 -d -1 -p message -e 32 -c 2 -a 0 -i 6 -k RTR
r -t 0.324272832 -s 22 -d -1 -p message -e 32 -c 2 -a 0 -i 6 -k RTR
r -t 0.324272832 -s 30 -d -1 -p message -e 32 -c 2 -a 0 -i 6 -k RTR
r -t 0.324272889 -s 31 -d -1 -p message -e 32 -c 2 -a 0 -i 6 -k RTR
r -t 0.324272893 -s 21 -d -1 -p message -e 32 -c 2 -a 0 -i 6 -k RTR
r -t 0.324272950 -s 20 -d -1 -p message -e 32 -c 2 -a 0 -i 6 -k RTR
r -t 0.324272950 -s 32 -d -1 -p message -e 32 -c 2 -a 0 -i 6 -k RTR
r -t 0.324273007 -s 33 -d -1 -p message -e 32 -c 2 -a 0 -i 6 -k RTR
r -t 0.324273011 -s 19 -d -1 -p message -e 32 -c 2 -a 0 -i 6 -k RTR
r -t 0.324273068 -s 18 -d -1 -p message -e 32 -c 2 -a 0 -i 6 -k RTR
r -t 0.324273068 -s 34 -d -1 -p message -e 32 -c 2 -a 0 -i 6 -k RTR
r -t 0.324273124 -s 35 -d -1 -p message -e 32 -c 2 -a 0 -i 6 -k RTR
r -t 0.324273129 -s 17 -d -1 -p message -e 32 -c 2 -a 0 -i 6 -k RTR
r -t 0.324273186 -s 16 -d -1 -p message -e 32 -c 2 -a 0 -i 6 -k RTR
r -t 0.324273186 -s 36 -d -1 -p message -e 32 -c 2 -a 0 -i 6 -k RTR
r -t 0.324273242 -s 37 -d -1 -p message -e 32 -c 2 -a 0 -i 6 -k RTR
r -t 0.324273247 -s 15 -d -1 -p message -e 32 -c 2 -a 0 -i 6 -k RTR
r -t 0.324273304 -s 14 -d -1 -p message -e 32 -c 2 -a 0 -i 6 -k RTR
r -t 0.324273304 -s 38 -d -1 -p message -e 32 -c 2 -a 0 -i 6 -k RTR
r -t 0.324273360 -s 39 -d -1 -p message -e 32 -c 2 -a 0 -i 6 -k RTR
r -t 0.324273365 -s 13 -d -1 -p message -e 32 -c 2 -a 0 -i 6 -k RTR
r -t 0.324273421 -s 12 -d -1 -p message -e 32 -c 2 -a 0 -i 6 -k RTR
+ -t 0.349191800 -s 3 -d -1 -p message -e 32 -c 2 -a 0 -i 7 -k RTR 
- -t 0.349191800 -s 3 -d -1 -p message -e 32 -c 2 -a 0 -i 7 -k RTR
h -t 0.349191800 -s 3 -d -1 -p message -e 32 -c 2 -a 0 -i 7 -k RTR
r -t 0.352921857 -s 2 -d -1 -p message -e 32 -c 2 -a 0 -i 7 -k RTR
r -t 0.352921862 -s 4 -d -1 -p message -e 32 -c 2 -a 0 -i 7 -k RTR
r -t 0.352921918 -s 1 -d -1 -p message -e 32 -c 2 -a 0 -i 7 -k RTR
r -t 0.352921918 -s 5 -d -1 -p message -e 32 -c 2 -a 0 -i 7 -k RTR
r -t 0.352921975 -s 0 -d -1 -p message -e 32 -c 2 -a 0 -i 7 -k RTR
r -t 0.352921979 -s 6 -d -1 -p message -e 32 -c 2 -a 0 -i 7 -k RTR
r -t 0.352922036 -s 7 -d -1 -p message -e 32 -c 2 -a 0 -i 7 -k RTR
r -t 0.352922097 -s 8 -d -1 -p message -e 32 -c 2 -a 0 -i 7 -k RTR
r -t 0.352922154 -s 9 -d -1 -p message -e 32 -c 2 -a 0 -i 7 -k RTR
r -t 0.352922215 -s 10 -d -1 -p message -e 32 -c 2 -a 0 -i 7 -k RTR
r -t 0.352922272 -s 11 -d -1 -p message -e 32 -c 2 -a 0 -i 7 -k RTR
r -t 0.352922333 -s 12 -d -1 -p message -e 32 -c 2 -a 0 -i 7 -k RTR
r -t 0.352922390 -s 13 -d -1 -p message -e 32 -c 2 -a 0 -i 7 -k RTR
r -t 0.352922451 -s 14 -d -1 -p message -e 32 -c 2 -a 0 -i 7 -k RTR
r -t 0.352922507 -s 15 -d -1 -p message -e 32 -c 2 -a 0 -i 7 -k RTR
r -t 0.352922569 -s 16 -d -1 -p message -e 32 -c 2 -a 0 -i 7 -k RTR
r -t 0.352922625 -s 17 -d -1 -p message -e 32 -c 2 -a 0 -i 7 -k RTR
+ -t 0.356017125 -s 29 -d -1 -p message -e 32 -c 2 -a 0 -i 8 -k RTR 
- -t 0.356017125 -s 29 -d -1 -p message -e 32 -c 2 -a 0 -i 8 -k RTR
h -t 0.356017125 -s 29 -d -1 -p message -e 32 -c 2 -a 0 -i 8 -k RTR
r -t 0.359427181 -s 28 -d -1 -p message -e 32 -c 2 -a 0 -i 8 -k RTR
r -t 0.359427186 -s 30 -d -1 -p message -e 32 -c 2 -a 0 -i 8 -k RTR
r -t 0.359427243 -s 27 -d -1 -p message -e 32 -c 2 -a 0 -i 8 -k RTR
r -t 0.359427243 -s 31 -d -1 -p message -e 32 -c 2 -a 0 -i 8 -k RTR
r -t 0.359427299 -s 26 -d -1 -p message -e 32 -c 2 -a 0 -i 8 -k RTR
r -t 0.359427304 -s 32 -d -1 -p message -e 32 -c 2 -a 0 -i 8 -k RTR
r -t 0.359427361 -s 25 -d -1 -p message -e 32 -c 2 -a 0 -i 8 -k RTR
r -t 0.359427361 -s 33 -d -1 -p message -e 32 -c 2 -a 0 -i 8 -k RTR
r -t 0.359427417 -s 24 -d -1 -p message -e 32 -c 2 -a 0 -i 8 -k RTR
r -t 0.359427422 -s 34 -d -1 -p message -e 32 -c 2 -a 0 -i 8 -k RTR
r -t 0.359427478 -s 23 -d -1 -p message -e 32 -c 2 -a 0 -i 8 -k RTR
r -t 0.359427478 -s 35 -d -1 -p message -e 32 -c 2 -a 0 -i 8 -k RTR
r -t 0.359427535 -s 22 -d -1 -p message -e 32 -c 2 -a 0 -i 8 -k RTR
r -t 0.359427540 -s 36 -d -1 -p message -e 32 -c 2 -a 0 -i 8 -k RTR
r -t 0.359427596 -s 21 -d -1 -p message -e 32 -c 2 -a 0 -i 8 -k RTR
r -t 0.359427596 -s 37 -d -1 -p message -e 32 -c 2 -a 0 -i 8 -k RTR
r -t 0.359427653 -s 20 -d -1 -p message -e 32 -c 2 -a 0 -i 8 -k RTR
r -t 0.359427658 -s 38 -d -1 -p message -e 32 -c 2 -a 0 -i 8 -k RTR
r -t 0.359427714 -s 19 -d -1 -p message -e 32 -c 2 -a 0 -i 8 -k RTR
r -t 0.359427714 -s 39 -d -1 -p message -e 32 -c 2 -a 0 -i 8 -k RTR
r -t 0.359427771 -s 18 -d -1 -p message -e 32 -c 2 -a 0 -i 8 -k RTR
r -t 0.359427832 -s 17 -d -1 -p message -e 32 -c 2 -a 0 -i 8 -k RTR
r -t 0.359427889 -s 16 -d -1 -p message -e 32 -c 2 -a 0 -i 8 -k RTR
r -t 0.359427950 -s 15 -d -1 -p message -e 32 -c 2 -a 0 -i 8 -k RTR
+ -t 0.421784672 -s 10 -d -1 -p message -e 32 -c 2 -a 0 -i 9 -k RTR 
- -t 0.421784672 -s 10 -d -1 -p message -e 32 -c 2 -a 0 -i 9 -k RTR
h -t 0.421784672 -s 10 -d -1 -p message -e 32 -c 2 -a 0 -i 9 -k RTR
r -t 0.425514729 -s 11 -d -1 -p message -e 32 -c 2 -a 0 -i 9 -k RTR
r -t 0.425514733 -s 9 -d -1 -p message -e 32 -c 2 -a 0 -i 9 -k RTR
r -t 0.425514790 -s 8 -d -1 -p message -e 32 -c 2 -a 0 -i 9 -k RTR
r -t 0.425514790 -s 12 -d -1 -p message -e 32 -c 2 -a 0 -i 9 -k RTR
r -t 0.425514846 -s 13 -d -1 -p message -e 32 -c 2 -a 0 -i 9 -k RTR
r -t 0.425514851 -s 7 -d -1 -p message -e 32 -c 2 -a 0 -i 9 -k RTR
r -t 0.425514908 -s 6 -d -1 -p message -e 32 -c 2 -a 0 -i 9 -k RTR
r -t 0.425514908 -s 14 -d -1 -p message -e 32 -c 2 -a 0 -i 9 -k RTR
r -t 0.425514964 -s 15 -d -1 -p message -e 32 -c 2 -a 0 -i 9 -k RTR
r -t 0.425514969 -s 5 -d -1 -p message -e 32 -c 2 -a 0 -i 9 -k RTR
r -t 0.425515026 -s 4 -d -1 -p message -e 32 -c 2 -a 0 -i 9 -k RTR
r -t 0.425515026 -s 16 -d -1 -p message -e 32 -c 2 -a 0 -i 9 -k RTR
r -t 0.425515082 -s 17 -d -1 -p message -e 32 -c 2 -a 0 -i 9 -k RTR
r -t 0.425515087 -s 3 -d -1 -p message -e 32 -c 2 -a 0 -i 9 -k RTR
r -t 0.425515143 -s 2 -d -1 -p message -e 32 -c 2 -a 0 -i 9 -k RTR
r -t 0.425515143 -s 18 -d -1 -p message -e 32 -c 2 -a 0 -i 9 -k RTR
r -t 0.425515200 -s 19 -d -1 -p message -e 32 -c 2 -a 0 -i 9 -k RTR
r -t 0.425515205 -s 1 -d -1 -p message -e 32 -c 2 -a 0 -i 9 -k RTR
r -t 0.425515261 -s 0 -d -1 -p message -e 32 -c 2 -a 0 -i 9 -k RTR
r -t 0.425515261 -s 20 -d -1 -p message -e 32 -c 2 -a 0 -i 9 -k RTR
r -t 0.425515318 -s 21 -d -1 -p message -e 32 -c 2 -a 0 -i 9 -k RTR
r -t 0.425515379 -s 22 -d -1 -p message -e 32 -c 2 -a 0 -i 9 -k RTR
r -t 0.425515436 -s 23 -d -1 -p message -e 32 -c 2 -a 0 -i 9 -k RTR
r -t 0.425515497 -s 24 -d -1 -p message -e 32 -c 2 -a 0 -i 9 -k RTR
+ -t 0.429968552 -s 17 -d -1 -p message -e 32 -c 2 -a 0 -i 10 -k RTR 
- -t 0.429968552 -s 17 -d -1 -p message -e 32 -c 2 -a 0 -i 10 -k RTR
h -t 0.429968552 -s 17 -d -1 -p message -e 32 -c 2 -a 0 -i 10 -k RTR
r -t 0.434018608 -s 16 -d -1 -p message -e 32 -c 2 -a 0 -i 10 -k RTR
r -t 0.434018613 -s 18 -d -1 -p message -e 32 -c 2 -a 0 -i 10 -k RTR
r -t 0.434018670 -s 15 -d -1 -p message -e 32 -c 2 -a 0 -i 10 -k RTR
r -t 0.434018670 -s 19 -d -1 -p message -e 32 -c 2 -a 0 -i 10 -k RTR
r -t 0.434018726 -s 14 -d -1 -p message -e 32 -c 2 -a 0 -i 10 -k RTR
r -t 0.434018731 -s 20 -d -1 -p message -e 32 -c 2 -a 0 -i 10 -k RTR
r -t 0.434018787 -s 13 -d -1 -p message -e 32 -c 2 -a 0 -i 10 -k RTR
r -t 0.434018787 -s 21 -d -1 -p message -e 32 -c 2 -a 0 -i 10 -k RTR
r -t 0.434018844 -s 12 -d -1 -p message -e 32 -c 2 -a 0 -i 10 -k RTR
r -t 0.434018849 -s 22 -d -1 -p message -e 32 -c 2 -a 0 -i 10 -k RTR
r -t 0.434018905 -s 11 -d -1 -p message -e 32 -c 2 -a 0 -i 10 -k RTR
r -t 0.434018905 -s 23 -d -1 -p message -e 32 -c 2 -a 0 -i 10 -k RTR
r -t 0.434018962 -s 10 -d -1 -p message -e 32 -c 2 -a 0 -i 10 -k RTR
r -t 0.434018967 -s 24 -d -1 -p message -e 32 -c 2 -a 0 -i 10 -k RTR
r -t 0.434019023 -s 9 -d -1 -p message -e 32 -c 2 -a 0 -i 10 -k RTR
r -t 0.434019023 -s 25 -d -1 -p message -e 32 -c 2 -a 0 -i 10 -k RTR
r -t 0.434019080 -s 8 -d -1 -p message -e 32 -c 2 -a 0 -i 10 -k RTR
r -t 0.434019084 -s 26 -d -1 -p message -e 32 -c 2 -a 0 -i 10 -k RTR
r -t 0.434019141 -s 7 -d -1 -p message -e 32 -c 2 -a 0 -i 10 -k RTR
r -t 0.434019141 -s 27 -d -1 -p message -e 32 -c 2 -a 0 -i 10 -k RTR
r -t 0.434019198 -s 6 -d -1 -p message -e 32 -c 2 -a 0 -i 10 -k RTR
r -t 0.434019202 -s 28 -d -1 -p message -e 32 -c 2 -a 0 -i 10 -k RTR
r -t 0.434019259 -s 5 -d -1 -p message -e 32 -c 2 -a 0 -i 10 -k RTR
r -t 0.434019259 -s 29 -d -1 -p message -e 32 -c 2 -a 0 -i 10 -k RTR
r -t 0.434019315 -s 4 -d -1 -p message -e 32 -c 2 -a 0 -i 10 -k RTR
r -t 0.434019320 -s 30 -d -1 -p message -e 32 -c 2 -a 0 -i 10 -k RTR
r -t 0.434019377 -s 3 -d -1 -p message -e 32 -c 2 -a 0 -i 10 -k RTR
r -t 0.434019377 -s 31 -d -1 -p message -e 32 -c 2 -a 0 -i 10 -k RTR
+ -t 0.454435365 -s 34 -d -1 -p message -e 32 -c 2 -a 0 -i 11 -k RTR 
- -t 0.454435365 -s 34 -d -1 -p message -e 32 -c 2 -a 0 -i 11 -k RTR
h -t 0.454435365 -s 34 -d -1 -p message -e 32 -c 2 -a 0 -i 11 -k RTR
r -t 0.458165422 -s 35 -d -1 -p message -e 32 -c 2 -a 0 -i 11 -k RTR
r -t 0.458165427 -s 33 -d -1 -p message -e 32 -c 2 -a 0 -i 11 -k RTR
r -t 0.458165483 -s 32 -d -1 -p message -e 32 -c 2 -a 0 -i 11 -k RTR
r -t 0.458165483 -s 36 -d -1 -p message -e 32 -c 2 -a 0 -i 11 -k RTR
r -t 0.458165540 -s 37 -d -1 -p message -e 32 -c 2 -a 0 -i 11 -k RTR
r -t 0.458165544 -s 31 -d -1 -p message -e 32 -c 2 -a 0 -i 11 -k RTR
r -t 0.458165601 -s 30 -d -1 -p message -e 32 -c 2 -a 0 -i 11 -k RTR
r -t 0.458165601 -s 38 -d -1 -p message -e 32 -c 2 -a 0 -i 11 -k RTR
r -t 0.458165658 -s 39 -d -1 -p message -e 32 -c 2 -a 0 -i 11 -k RTR
r -t 0.458165662 -s 29 -d -1 -p message -e 32 -c 2 -a 0 -i 11 -k RTR
r -t 0.458165719 -s 28 -d -1 -p message -e 32 -c 2 -a 0 -i 11 -k RTR
r -t 0.458165780 -s 27 -d -1 -p message -e 32 -c 2 -a 0 -i 11 -k RTR
r -t 0.458165837 -s 26 -d -1 -p message -e 32 -c 2 -a 0 -i 11 -k RTR
r -t 0.458165898 -s 25 -d -1 -p message -e 32 -c 2 -a 0 -i 11 -k RTR
r -t 0.458165955 -s 24 -d -1 -p message -e 32 -c 2 -a 0 -i 11 -k RTR
r -t 0.458166016 -s 23 -d -1 -p message -e 32 -c 2 -a 0 -i 11 -k RTR
r -t 0.458166072 -s 22 -d -1 -p message -e 32 -c 2 -a 0 -i 11 -k RTR
r -t 0.458166134 -s 21 -d -1 -p message -e 32 -c 2 -a 0 -i 11 -k RTR
r -t 0.458166190 -s 20 -d -1 -p message -e 32 -c 2 -a 0 -i 11 -k RTR
+ -t 0.474672686 -s 27 -d -1 -p message -e 32 -c 2 -a 0 -i 12 -k RTR 
- -t 0.474672686 -s 27 -d -1 -p message -e 32 -c 2 -a 0 -i 12 -k RTR
h -t 0.474672686 -s 27 -d -1 -p message -e 32 -c 2 -a 0 -i 12 -k RTR
r -t 0.477122743 -s 26 -d -1 -p message -e 32 -c 2 -a 0 -i 12 -k RTR
r -t 0.477122748 -s 28 -d -1 -p message -e 32 -c 2 -a 0 -i 12 -k RTR
r -t 0.477122804 -s 25 -d -1 -p message -e 32 -c 2 -a 0 -i 12 -k RTR
r -t 0.477122804 -s 29 -d -1 -p message -e 32 -c 2 -a 0 -i 12 -k RTR
r -t 0.477122861 -s 24 -d -1 -p message -e 32 -c 2 -a 0 -i 12 -k RTR
r -t 0.477122865 -s 30 -d -1 -p message -e 32 -c 2 -a 0 -i 12 -k RTR
r -t 0.477122922 -s 23 -d -1 -p message -e 32 -c 2 -a 0 -i 12 -k RTR
r -t 0.477122922 -s 31 -d -1 -p message -e 32 -c 2 -a 0 -i 12 -k RTR
r -t 0.477122979 -s 22 -d -1 -p message -e 32 -c 2 -a 0 -i 12 -k RTR
r -t 0.477122983 -s 32 -d -1 -p message -e 32 -c 2 -a 0 -i 12 -k RTR
r -t 0.477123040 -s 21 -d -1 -p message -e 32 -c 2 -a 0 -i 12 -k RTR
r -t 0.477123040 -s 33 -d -1 -p message -e 32 -c 2 -a 0 -i 12 -k RTR
r -t 0.477123096 -s 20 -d -1 -p message -e 32 -c 2 -a 0 -i 12 -k RTR
r -t 0.477123101 -s 34 -d -1 -p message -e 32 -c 2 -a 0 -i 12 -k RTR
r -t 0.477123158 -s 19 -d -1 -p message -e 32 -c 2 -a 0 -i 12 -k RTR
r -t 0.477123158 -s 35 -d -1 -p message -e 32 -c 2 -a 0 -i 12 -k RTR
r -t 0.477123214 -s 18 -d -1 -p message -e 32 -c 2 -a 0 -i 12 -k RTR
r -t 0.477123219 -s 36 -d -1 -p message -e 32 -c 2 -a 0 -i 12 -k RTR
r -t 0.477123276 -s 17 -d -1 -p message -e 32 -c 2 -a 0 -i 12 -k RTR
r -t 0.477123276 -s 37 -d -1 -p message -e 32 -c 2 -a 0 -i 12 -k RTR
r -t 0.477123332 -s 16 -d -1 -p message -e 32 -c 2 -a 0 -i 12 -k RTR
r -t 0.477123337 -s 38 -d -1 -p message -e 32 -c 2 -a 0 -i 12 -k RTR
r -t 0.477123393 -s 15 -d -1 -p message -e 32 -c 2 -a 0 -i 12 -k RTR
r -t 0.477123393 -s 39 -d -1 -p message -e 32 -c 2 -a 0 -i 12 -k RTR
r -t 0.477123450 -s 14 -d -1 -p message -e 32 -c 2 -a 0 -i 12 -k RTR
r -t 0.477123511 -s 13 -d -1 -p message -e 32 -c 2 -a 0 -i 12 -k RTR
+ -t 0.671962519 -s 14 -d -1 -p message -e 32 -c 2 -a 0 -i 13 -k RTR 
- -t 0.671962519 -s 14 -d -1 -p message -e 32 -c 2 -a 0 -i 13 -k RTR
h -t 0.671962519 -s 14 -d -1 -p message -e 32 -c 2 -a 0 -i 13 -k RTR
r -t 0.676652576 -s 15 -d -1 -p message -e 32 -c 2 -a 0 -i 13 -k RTR
r -t 0.676652581 -s 13 -d -1 -p message -e 32 -c 2 -a 0 -i 13 -k RTR
r -t 0.676652637 -s 12 -d -1 -p message -e 32 -c 2 -a 0 -i 13 -k RTR
r -t 0.676652637 -s 16 -d -1 -p message -e 32 -c 2 -a 0 -i 13 -k RTR
r -t 0.676652694 -s 17 -d -1 -p message -e 32 -c 2 -a 0 -i 13 -k RTR
r -t 0.676652698 -s 11 -d -1 -p message -e 32 -c 2 -a 0 -i 13 -k RTR
r -t 0.676652755 -s 10 -d -1 -p message -e 32 -c 2 -a 0 -i 13 -k RTR
r -t 0.676652755 -s 18 -d -1 -p message -e 32 -c 2 -a 0 -i 13 -k RTR
r -t 0.676652812 -s 19 -d -1 -p message -e 32 -c 2 -a 0 -i 13 -k RTR
r -t 0.676652816 -s 9 -d -1 -p message -e 32 -c 2 -a 0 -i 13 -k RTR
r -t 0.676652873 -s 8 -d -1 -p message -e 32 -c 2 -a 0 -i 13 -k RTR
r -t 0.676652873 -s 20 -d -1 -p message -e 32 -c 2 -a 0 -i 13 -k RTR
r -t 0.676652929 -s 21 -d -1 -p message -e 32 -c 2 -a 0 -i 13 -k RTR
r -t 0.676652934 -s 7 -d -1 -p message -e 32 -c 2 -a 0 -i 13 -k RTR
r -t 0.676652991 -s 6 -d -1 -p message -e 32 -c 2 -a 0 -i 13 -k RTR
r -t 0.676652991 -s 22 -d -1 -p message -e 32 -c 2 -a 0 -i 13 -k RTR
r -t 0.676653047 -s 23 -d -1 -p message -e 32 -c 2 -a 0 -i 13 -k RTR
r -t 0.676653052 -s 5 -d -1 -p message -e 32 -c 2 -a 0 -i 13 -k RTR
r -t 0.676653109 -s 4 -d -1 -p message -e 32 -c 2 -a 0 -i 13 -k RTR
r -t 0.676653109 -s 24 -d -1 -p message -e 32 -c 2 -a 0 -i 13 -k RTR
r -t 0.676653165 -s 25 -d -1 -p message -e 32 -c 2 -a 0 -i 13 -k RTR
r -t 0.676653170 -s 3 -d -1 -p message -e 32 -c 2 -a 0 -i 13 -k RTR
r -t 0.676653226 -s 2 -d -1 -p message -e 32 -c 2 -a 0 -i 13 -k RTR
r -t 0.676653226 -s 26 -d -1 -p message -e 32 -c 2 -a 0 -i 13 -k RTR
r -t 0.676653283 -s 27 -d -1 -p message -e 32 -c 2 -a 0 -i 13 -k RTR
r -t 0.676653288 -s 1 -d -1 -p message -e 32 -c 2 -a 0 -i 13 -k RTR
r -t 0.676653344 -s 0 -d -1 -p message -e 32 -c 2 -a 0 -i 13 -k RTR
r -t 0.676653344 -s 28 -d -1 -p message -e 32 -c 2 -a 0 -i 13 -k RTR
+ -t 0.684226311 -s 37 -d -1 -p message -e 32 -c 2 -a 0 -i 14 -k RTR 
- -t 0.684226311 -s 37 -d -1 -p message -e 32 -c 2 -a 0 -i 14 -k RTR
h -t 0.684226311 -s 37 -d -1 -p message -e 32 -c 2 -a 0 -i 14 -k RTR
r -t 0.688276367 -s 36 -d -1 -p message -e 32 -c 2 -a 0 -i 14 -k RTR
r -t 0.688276372 -s 38 -d -1 -p message -e 32 -c 2 -a 0 -i 14 -k RTR
r -t 0.688276428 -s 35 -d -1 -p message -e 32 -c 2 -a 0 -i 14 -k RTR
r -t 0.688276428 -s 39 -d -1 -p message -e 32 -c 2 -a 0 -i 14 -k RTR
r -t 0.688276485 -s 34 -d -1 -p message -e 32 -c 2 -a 0 -i 14 -k RTR
r -t 0.688276546 -s 33 -d -1 -p message -e 32 -c 2 -a 0 -i 14 -k RTR
r -t 0.688276603 -s 32 -d -1 -p message -e 32 -c 2 -a 0 -i 14 -k RTR
r -t 0.688276664 -s 31 -d -1 -p message -e 32 -c 2 -a 0 -i 14 -k RTR
r -t 0.688276721 -s 30 -d -1 -p message -e 32 -c 2 -a 0 -i 14 -k RTR
r -t 0.688276782 -s 29 -d -1 -p message -e 32 -c 2 -a 0 -i 14 -k RTR
r -t 0.688276839 -s 28 -d -1 -p message -e 32 -c 2 -a 0 -i 14 -k RTR
r -t 0.688276900 -s 27 -d -1 -p message -e 32 -c 2 -a 0 -i 14 -k RTR
r -t 0.688276956 -s 26 -d -1 -p message -e 32 -c 2 -a 0 -i 14 -k RTR
r -t 0.688277018 -s 25 -d -1 -p message -e 32 -c 2 -a 0 -i 14 -k RTR
r -t 0.688277074 -s 24 -d -1 -p message -e 32 -c 2 -a 0 -i 14 -k RTR
r -t 0.688277136 -s 23 -d -1 -p message -e 32 -c 2 -a 0 -i 14 -k RTR
+ -t 0.820392893 -s 20 -d -1 -p message -e 32 -c 2 -a 0 -i 15 -k RTR 
- -t 0.820392893 -s 20 -d -1 -p message -e 32 -c 2 -a 0 -i 15 -k RTR
h -t 0.820392893 -s 20 -d -1 -p message -e 32 -c 2 -a 0 -i 15 -k RTR
r -t 0.824122949 -s 21 -d -1 -p message -e 32 -c 2 -a 0 -i 15 -k RTR
r -t 0.824122954 -s 19 -d -1 -p message -e 32 -c 2 -a 0 -i 15 -k RTR
r -t 0.824123011 -s 18 -d -1 -p message -e 32 -c 2 -a 0 -i 15 -k RTR
r -t 0.824123011 -s 22 -d -1 -p message -e 32 -c 2 -a 0 -i 15 -k RTR
r -t 0.824123067 -s 23 -d -1 -p message -e 32 -c 2 -a 0 -i 15 -k RTR
r -t 0.824123072 -s 17 -d -1 -p message -e 32 -c 2 -a 0 -i 15 -k RTR
r -t 0.824123128 -s 16 -d -1 -p message -e 32 -c 2 -a 0 -i 15 -k RTR
r -t 0.824123128 -s 24 -d -1 -p message -e 32 -c 2 -a 0 -i 15 -k RTR
r -t 0.824123185 -s 25 -d -1 -p message -e 32 -c 2 -a 0 -i 15 -k RTR
r -t 0.824123190 -s 15 -d -1 -p message -e 32 -c 2 -a 0 -i 15 -k RTR
r -t 0.824123246 -s 14 -d -1 -p message -e 32 -c 2 -a 0 -i 15 -k RTR