s 0.036328457 _11_ RTR  --- 0 message 32 [0 0 0 0] [energy 3.000000 ei 0.000 es 0.000 et 0.000 er 0.000] ------- [11:255 -1:255 32 0] 
N -t 0.036674 -n 10 -e 2.982201
N -t 0.036674 -n 12 -e 2.982201
N -t 0.036674 -n 9 -e 2.982201
N -t 0.036674 -n 13 -e 2.982201
N -t 0.036674 -n 8 -e 2.982201
N -t 0.036674 -n 14 -e 2.982201
N -t 0.036674 -n 7 -e 2.982201
N -t 0.036674 -n 15 -e 2.982201
N -t 0.036674 -n 6 -e 2.982201
N -t 0.036674 -n 16 -e 2.982201
N -t 0.036674 -n 5 -e 2.982201
N -t 0.036674 -n 17 -e 2.982201
N -t 0.036674 -n 4 -e 2.982201
N -t 0.036674 -n 18 -e 2.982201
N -t 0.036674 -n 3 -e 2.982201
N -t 0.036674 -n 19 -e 2.982201
N -t 0.036674 -n 2 -e 2.982201
N -t 0.036674 -n 20 -e 2.982201
N -t 0.036674 -n 1 -e 2.982201
N -t 0.036674 -n 21 -e 2.982201
N -t 0.036674 -n 0 -e 2.982201
N -t 0.036674 -n 22 -e 2.982201
N -t 0.036674 -n 23 -e 2.982201
N -t 0.036674 -n 24 -e 2.982201
N -t 0.036674 -n 25 -e 2.982201
N -t 0.036674 -n 26 -e 2.982201
N -t 0.036674 -n 27 -e 2.982201
N -t 0.036674 -n 28 -e 2.982200
N -t 0.036675 -n 29 -e 2.982200
N -t 0.036675 -n 30 -e 2.982200
N -t 0.036675 -n 31 -e 2.982200
N -t 0.036675 -n 32 -e 2.982200
N -t 0.036675 -n 33 -e 2.982200
N -t 0.036675 -n 34 -e 2.982200
N -t 0.036675 -n 35 -e 2.982200
N -t 0.036675 -n 36 -e 2.982200
N -t 0.036675 -n 37 -e 2.982200
N -t 0.036675 -n 38 -e 2.982200
N -t 0.036675 -n 39 -e 2.982200
r 0.038778514 _10_ RTR  --- 0 message 32 [0 ffffffff b 800] [energy 2.982201 ei 0.017 es 0.000 et 0.000 er 0.001] ------- [11:255 -1:255 32 0] 
r 0.038778518 _12_ RTR  --- 0 message 32 [0 ffffffff b 800] [energy 2.982201 ei 0.017 es 0.000 et 0.000 er 0.001] ------- [11:255 -1:255 32 0] 
r 0.038778575 _9_ RTR  --- 0 message 32 [0 ffffffff b 800] [energy 2.982201 ei 0.017 es 0.000 et 0.000 er 0.001] ------- [11:255 -1:255 32 0] 
r 0.038778575 _13_ RTR  --- 0 message 32 [0 ffffffff b 800] [energy 2.982201 ei 0.017 es 0.000 et 0.000 er 0.001] ------- [11:255 -1:255 32 0] 
r 0.038778632 _8_ RTR  --- 0 message 32 [0 ffffffff b 800] [energy 2.982201 ei 0.017 es 0.000 et 0.000 er 0.001] ------- [11:255 -1:255 32 0] 
r 0.038778636 _14_ RTR  --- 0 message 32 [0 ffffffff b 800] [energy 2.982201 ei 0.017 es 0.000 et 0.000 er 0.001] ------- [11:255 -1:255 32 0] 
r 0.038778693 _7_ RTR  --- 0 message 32 [0 ffffffff b 800] [energy 2.982201 ei 0.017 es 0.000 et 0.000 er 0.001] ------- [11:255 -1:255 32 0] 
r 0.038778693 _15_ RTR  --- 0 message 32 [0 ffffffff b 800] [energy 2.982201 ei 0.017 es 0.000 et 0.000 er 0.001] ------- [11:255 -1:255 32 0] 
r 0.038778749 _6_ RTR  --- 0 message 32 [0 ffffffff b 800] [energy 2.982201 ei 0.017 es 0.000 et 0.000 er 0.001] ------- [11:255 -1:255 32 0] 
r 0.038778754 _16_ RTR  --- 0 message 32 [0 ffffffff b 800] [energy 2.982201 ei 0.017 es 0.000 et 0.000 er 0.001] ------- [11:255 -1:255 32 0] 
r 0.038778811 _5_ RTR  --- 0 message 32 [0 ffffffff b 800] [energy 2.982201 ei 0.017 es 0.000 et 0.000 er 0.001] ------- [11:255 -1:255 32 0] 
r 0.038778811 _17_ RTR  --- 0 message 32 [0 ffffffff b 800] [energy 2.982201 ei 0.017 es 0.000 et 0.000 er 0.001] ------- [11:255 -1:255 32 0] 
r 0.038778867 _4_ RTR  --- 0 message 32 [0 ffffffff b 800] [energy 2.982201 ei 0.017 es 0.000 et 0.000 er 0.001] ------- [11:255 -1:255 32 0] 
r 0.038778872 _18_ RTR  --- 0 message 32 [0 ffffffff b 800] [energy 2.982201 ei 0.017 es 0.000 et 0.000 er 0.001] ------- [11:255 -1:255 32 0] 
r 0.038778929 _3_ RTR  --- 0 message 32 [0 ffffffff b 800] [energy 2.982201 ei 0.017 es 0.000 et 0.000 er 0.001] ------- [11:255 -1:255 32 0] 
r 0.038778929 _19_ RTR  --- 0 message 32 [0 ffffffff b 800] [energy 2.982201 ei 0.017 es 0.000 et 0.000 er 0.001] ------- [11:255 -1:255 32 0] 
r 0.038778985 _2_ RTR  --- 0 message 32 [0 ffffffff b 800] [energy 2.982201 ei 0.017 es 0.000 et 0.000 er 0.001] ------- [11:255 -1:255 32 0] 
r 0.038778990 _20_ RTR  --- 0 message 32 [0 ffffffff b 800] [energy 2.982201 ei 0.017 es 0.000 et 0.000 er 0.001] ------- [11:255 -1:255 32 0] 
r 0.038779046 _1_ RTR  --- 0 message 32 [0 ffffffff b 800] [energy 2.982201 ei 0.017 es 0.000 et 0.000 er 0.001] ------- [11:255 -1:255 32 0] 
r 0.038779046 _21_ RTR  --- 0 message 32 [0 ffffffff b 800] [energy 2.982201 ei 0.017 es 0.000 et 0.000 er 0.001] ------- [11:255 -1:255 32 0] 
r 0.038779103 _0_ RTR  --- 0 message 32 [0 ffffffff b 800] [energy 2.982201 ei 0.017 es 0.000 et 0.000 er 0.001] ------- [11:255 -1:255 32 0] 
r 0.038779108 _22_ RTR  --- 0 message 32 [0 ffffffff b 800] [energy 2.982201 ei 0.017 es 0.000 et 0.000 er 0.001] ------- [11:255 -1:255 32 0] 
r 0.038779164 _23_ RTR  --- 0 message 32 [0 ffffffff b 800] [energy 2.982201 ei 0.017 es 0.000 et 0.000 er 0.001] ------- [11:255 -1:255 32 0] 
r 0.038779225 _24_ RTR  --- 0 message 32 [0 ffffffff b 800] [energy 2.982201 ei 0.017 es 0.000 et 0.000 er 0.001] ------- [11:255 -1:255 32 0] 
r 0.038779282 _25_ RTR  --- 0 message 32 [0 ffffffff b 800] [energy 2.982201 ei 0.017 es 0.000 et 0.000 er 0.001] ------- [11:255 -1:255 32 0] 
s 0.073282045 _4_ RTR  --- 1 message 32 [0 0 0 0] [energy 2.982201 ei 0.017 es 0.000 et 0.000 er 0.001] ------- [4:255 -1:255 32 0] 
N -t 0.074587 -n 5 -e 2.964492
N -t 0.074587 -n 3 -e 2.964492
N -t 0.074587 -n 2 -e 2.964492
N -t 0.074587 -n 6 -e 2.964492
N -t 0.074587 -n 7 -e 2.964492
N -t 0.074587 -n 1 -e 2.964492
N -t 0.074587 -n 0 -e 2.964492
N -t 0.074587 -n 8 -e 2.964492
N -t 0.074587 -n 9 -e 2.964492
N -t 0.074587 -n 10 -e 2.964492
N -t 0.074587 -n 11 -e 2.964924
N -t 0.074588 -n 12 -e 2.964492
N -t 0.074588 -n 13 -e 2.964492
N -t 0.074588 -n 14 -e 2.964492
N -t 0.074588 -n 15 -e 2.964492
N -t 0.074588 -n 16 -e 2.964492
N -t 0.074588 -n 17 -e 2.964491
N -t 0.074588 -n 18 -e 2.964491
N -t 0.074588 -n 19 -e 2.964491
N -t 0.074588 -n 20 -e 2.964491
N -t 0.074588 -n 21 -e 2.964491
N -t 0.074588 -n 22 -e 2.964491
N -t 0.074588 -n 23 -e 2.964491
N -t 0.074588 -n 24 -e 2.964491
N -t 0.074588 -n 25 -e 2.964491
N -t 0.074588 -n 26 -e 2.964491
N -t 0.074588 -n 27 -e 2.964491
N -t 0.074588 -n 28 -e 2.964491
N -t 0.074589 -n 29 -e 2.964491
N -t 0.074589 -n 30 -e 2.964491
N -t 0.074589 -n 31 -e 2.964491
N -t 0.074589 -n 32 -e 2.964491
N -t 0.074589 -n 33 -e 2.964491
N -t 0.074589 -n 34 -e 2.964491
N -t 0.074589 -n 35 -e 2.964491
r 0.076692102 _5_ RTR  --- 1 message 32 [0 ffffffff 4 800] [energy 2.964492 ei 0.033 es 0.000 et 0.000 er 0.003] ------- [4:255 -1:255 32 0] 
r 0.076692106 _3_ RTR  --- 1 message 32 [0 ffffffff 4 800] [energy 2.964492 ei 0.033 es 0.000 et 0.000 er 0.003] ------- [4:255 -1:255 32 0] 
r 0.076692163 _2_ RTR  --- 1 message 32 [0 ffffffff 4 800] [energy 2.964492 ei 0.033 es 0.000 et 0.000 er 0.003] ------- [4:255 -1:255 32 0] 
r 0.076692163 _6_ RTR  --- 1 message 32 [0 ffffffff 4 800] [energy 2.964492 ei 0.033 es 0.000 et 0.000 er 0.003] ------- [4:255 -1:255 32 0] 
r 0.076692219 _7_ RTR  --- 1 message 32 [0 ffffffff 4 800] [energy 2.964492 ei 0.033 es 0.000 et 0.000 er 0.003] ------- [4:255 -1:255 32 0] 
r 0.076692224 _1_ RTR  --- 1 message 32 [0 ffffffff 4 800] [energy 2.964492 ei 0.033 es 0.000 et 0.000 er 0.003] ------- [4:255 -1:255 32 0] 
r 0.076692281 _0_ RTR  --- 1 message 32 [0 ffffffff 4 800] [energy 2.964492 ei 0.033 es 0.000 et 0.000 er 0.003] ------- [4:255 -1:255 32 0] 
r 0.076692281 _8_ RTR  --- 1 message 32 [0 ffffffff 4 800] [energy 2.964492 ei 0.033 es 0.000 et 0.000 er 0.003] ------- [4:255 -1:255 32 0] 
r 0.076692337 _9_ RTR  --- 1 message 32 [0 ffffffff 4 800] [energy 2.964492 ei 0.033 es 0.000 et 0.000 er 0.003] ------- [4:255 -1:255 32 0] 
r 0.076692399 _10_ RTR  --- 1 message 32 [0 ffffffff 4 800] [energy 2.964492 ei 0.033 es 0.000 et 0.000 er 0.003] ------- [4:255 -1:255 32 0] 
r 0.076692455 _11_ RTR  --- 1 message 32 [0 ffffffff 4 800] [energy 2.964924 ei 0.033 es 0.000 et 0.001 er 0.002] ------- [4:255 -1:255 32 0] 
r 0.076692516 _12_ RTR  --- 1 message 32 [0 ffffffff 4 800] [energy 2.964492 ei 0.033 es 0.000 et 0.000 er 0.003] ------- [4:255 -1:255 32 0] 
r 0.076692573 _13_ RTR  --- 1 message 32 [0 ffffffff 4 800] [energy 2.964492 ei 0.033 es 0.000 et 0.000 er 0.003] ------- [4:255 -1:255 32 0] 
r 0.076692634 _14_ RTR  --- 1 message 32 [0 ffffffff 4 800] [energy 2.964492 ei 0.033 es 0.000 et 0.000 er 0.003] ------- [4:255 -1:255 32 0] 
r 0.076692691 _15_ RTR  --- 1 message 32 [0 ffffffff 4 800] [energy 2.964492 ei 0.033 es 0.000 et 0.000 er 0.003] ------- [4:255 -1:255 32 0] 
r 0.076692752 _16_ RTR  --- 1 message 32 [0 ffffffff 4 800] [energy 2.964492 ei 0.033 es 0.000 et 0.000 er 0.003] ------- [4:255 -1:255 32 0] 
r 0.076692809 _17_ RTR  --- 1 message 32 [0 ffffffff 4 800] [energy 2.964491 ei 0.033 es 0.000 et 0.000 er 0.003] ------- [4:255 -1:255 32 0] 
r 0.076692870 _18_ RTR  --- 1 message 32 [0 ffffffff 4 800] [energy 2.964491 ei 0.033 es 0.000 et 0.000 er 0.003] ------- [4:255 -1:255 32 0] 
s 0.088584275 _31_ RTR  --- 2 message 32 [0 0 0 0] [energy 2.964491 ei 0.033 es 0.000 et 0.000 er 0.003] ------- [31:255 -1:255 32 0] 
N -t 0.090529 -n 30 -e 2.956670
N -t 0.090529 -n 32 -e 2.956670
N -t 0.090529 -n 29 -e 2.956670
N -t 0.090529 -n 33 -e 2.956670
N -t 0.090529 -n 28 -e 2.956670
N -t 0.090529 -n 34 -e 2.956670
N -t 0.090530 -n 27 -e 2.956670
N -t 0.090530 -n 35 -e 2.956670
N -t 0.090530 -n 26 -e 2.956670
N -t 0.090530 -n 36 -e 2.957318
N -t 0.090530 -n 25 -e 2.956670
N -t 0.090530 -n 37 -e 2.957318
N -t 0.090530 -n 24 -e 2.956670
N -t 0.090530 -n 38 -e 2.957318
N -t 0.090530 -n 23 -e 2.956670
N -t 0.090530 -n 39 -e 2.957318
N -t 0.090530 -n 22 -e 2.956670
N -t 0.090530 -n 21 -e 2.956670
N -t 0.090530 -n 20 -e 2.956670
N -t 0.090530 -n 19 -e 2.956670
N -t 0.090530 -n 18 -e 2.956669
N -t 0.090530 -n 17 -e 2.956669
N -t 0.090530 -n 16 -e 2.956669
N -t 0.090530 -n 15 -e 2.956669
N -t 0.090530 -n 14 -e 2.956669
N -t 0.090530 -n 13 -e 2.956669
N -t 0.090530 -n 12 -e 2.956669
N -t 0.090530 -n 11 -e 2.957101
N -t 0.090531 -n 10 -e 2.956669
N -t 0.090531 -n 9 -e 2.956669
N -t 0.090531 -n 8 -e 2.956669
N -t 0.090531 -n 7 -e 2.956669
N -t 0.090531 -n 6 -e 2.956669
N -t 0.090531 -n 5 -e 2.956669
N -t 0.090531 -n 4 -e 2.957101
N -t 0.090531 -n 3 -e 2.956669
N -t 0.090531 -n 2 -e 2.956669
N -t 0.090531 -n 1 -e 2.956669
N -t 0.090531 -n 0 -e 2.956669
r 0.092634331 _30_ RTR  --- 2 message 32 [0 ffffffff 1f 800] [energy 2.956670 ei 0.039 es 0.000 et 0.000 er 0.004] ------- [31:255 -1:255 32 0] 
r 0.092634336 _32_ RTR  --- 2 message 32 [0 ffffffff 1f 800] [energy 2.956670 ei 0.039 es 0.000 et 0.000 er 0.004] ------- [31:255 -1:255 32 0] 
r 0.092634393 _29_ RTR  --- 2 message 32 [0 ffffffff 1f 800] [energy 2.956670 ei 0.039 es 0.000 et 0.000 er 0.004] ------- [31:255 -1:255 32 0] 
r 0.092634393 _33_ RTR  --- 2 message 32 [0 ffffffff 1f 800] [energy 2.956670 ei 0.039 es 0.000 et 0.000 er 0.004] ------- [31:255 -1:255 32 0] 
r 0.092634449 _28_ RTR  --- 2 message 32 [0 ffffffff 1f 800] [energy 2.956670 ei 0.039 es 0.000 et 0.000 er 0.004] ------- [31:255 -1:255 32 0] 
r 0.092634454 _34_ RTR  --- 2 message 32 [0 ffffffff 1f 800] [energy 2.956670 ei 0.039 es 0.000 et 0.000 er 0.004] ------- [31:255 -1:255 32 0] 
r 0.092634510 _27_ RTR  --- 2 message 32 [0 ffffffff 1f 800] [energy 2.956670 ei 0.039 es 0.000 et 0.000 er 0.004] ------- [31:255 -1:255 32 0] 
r 0.092634510 _35_ RTR  --- 2 message 32 [0 ffffffff 1f 800] [energy 2.956670 ei 0.039 es 0.000 et 0.000 er 0.004] ------- [31:255 -1:255 32 0] 
r 0.092634567 _26_ RTR  --- 2 message 32 [0 ffffffff 1f 800] [energy 2.956670 ei 0.039 es 0.000 et 0.000 er 0.004] ------- [31:255 -1:255 32 0] 
r 0.092634572 _36_ RTR  --- 2 message 32 [0 ffffffff 1f 800] [energy 2.957318 ei 0.040 es 0.000 et 0.000 er 0.003] ------- [31:255 -1:255 32 0] 
r 0.092634628 _25_ RTR  --- 2 message 32 [0 ffffffff 1f 800] [energy 2.956670 ei 0.039 es 0.000 et 0.000 er 0.004] ------- [31:255 -1:255 32 0] 
r 0.092634628 _37_ RTR  --- 2 message 32 [0 ffffffff 1f 800] [energy 2.957318 ei 0.040 es 0.000 et 0.000 er 0.003] ------- [31:255 -1:255 32 0] 
r 0.092634685 _24_ RTR  --- 2 message 32 [0 ffffffff 1f 800] [energy 2.956670 ei 0.039 es 0.000 et 0.000 er 0.004] ------- [31:255 -1:255 32 0] 
r 0.092634690 _38_ RTR  --- 2 message 32 [0 ffffffff 1f 800] [energy 2.957318 ei 0.040 es 0.000 et 0.000 er 0.003] ------- [31:255 -1:255 32 0] 
r 0.092634746 _23_ RTR  --- 2 message 32 [0 ffffffff 1f 800] [energy 2.956670 ei 0.039 es 0.000 et 0.000 er 0.004] ------- [31:255 -1:255 32 0] 
r 0.092634746 _39_ RTR  --- 2 message 32 [0 ffffffff 1f 800] [energy 2.957318 ei 0.040 es 0.000 et 0.000 er 0.003] ------- [31:255 -1:255 32 0] 
r 0.092634803 _22_ RTR  --- 2 message 32 [0 ffffffff 1f 800] [energy 2.956670 ei 0.039 es 0.000 et 0.000 er 0.004] ------- [31:255 -1:255 32 0] 
r 0.092634864 _21_ RTR  --- 2 message 32 [0 ffffffff 1f 800] [energy 2.956670 ei 0.039 es 0.000 et 0.000 er 0.004] ------- [31:255 -1:255 32 0] 
r 0.092634921 _20_ RTR  --- 2 message 32 [0 ffffffff 1f 800] [energy 2.956670 ei 0.039 es 0.000 et 0.000 er 0.004] ------- [31:255 -1:255 32 0] 
r 0.092634982 _19_ RTR  --- 2 message 32 [0 ffffffff 1f 800] [energy 2.956670 ei 0.039 es 0.000 et 0.000 er 0.004] ------- [31:255 -1:255 32 0] 
r 0.092635038 _18_ RTR  --- 2 message 32 [0 ffffffff 1f 800] [energy 2.956669 ei 0.039 es 0.000 et 0.000 er 0.004] ------- [31:255 -1:255 32 0] 
r 0.092635100 _17_ RTR  --- 2 message 32 [0 ffffffff 1f 800] [energy 2.956669 ei 0.039 es 0.000 et 0.000 er 0.004] ------- [31:255 -1:255 32 0] 
s 0.126846076 _36_ RTR  --- 3 message 32 [0 0 0 0] [energy 2.957318 ei 0.040 es 0.000 et 0.000 er 0.003] ------- [36:255 -1:255 32 0] 
N -t 0.128791 -n 37 -e 2.939452
N -t 0.128791 -n 35 -e 2.938804
N -t 0.128791 -n 34 -e 2.938804
N -t 0.128791 -n 38 -e 2.939452
N -t 0.128791 -n 39 -e 2.939452
N -t 0.128791 -n 33 -e 2.938804
N -t 0.128791 -n 32 -e 2.938804
N -t 0.128791 -n 31 -e 2.939236
N -t 0.128791 -n 30 -e 2.938804
N -t 0.128791 -n 29 -e 2.938804
N -t 0.128792 -n 28 -e 2.938804
N -t 0.128792 -n 27 -e 2.938804
N -t 0.128792 -n 26 -e 2.938804
N -t 0.128792 -n 25 -e 2.938804
N -t 0.128792 -n 24 -e 2.938804
N -t 0.128792 -n 23 -e 2.938804
N -t 0.128792 -n 22 -e 2.938804
N -t 0.128792 -n 21 -e 2.938804
N -t 0.128792 -n 20 -e 2.938804
N -t 0.128792 -n 19 -e 2.938804
N -t 0.128792 -n 18 -e 2.938804
N -t 0.128792 -n 17 -e 2.938804
N -t 0.128792 -n 16 -e 2.938803
N -t 0.128792 -n 15 -e 2.938803
N -t 0.128792 -n 14 -e 2.938803
N -t 0.128792 -n 13 -e 2.938803
N -t 0.128792 -n 12 -e 2.938803
N -t 0.128793 -n 11 -e 2.939235
N -t 0.128793 -n 10 -e 2.938803
N -t 0.128793 -n 9 -e 2.938803
N -t 0.128793 -n 8 -e 2.938803
N -t 0.128793 -n 7 -e 2.938803
N -t 0.128793 -n 6 -e 2.938803
N -t 0.128793 -n 5 -e 2.938803
s 0.129642904 _28_ RTR  --- 4 message 32 [0 0 0 0] [energy 2.938804 ei 0.056 es 0.000 et 0.000 er 0.005] ------- [28:255 -1:255 32 0] 
r 0.130896132 _37_ RTR  --- 3 message 32 [0 ffffffff 24 800] [energy 2.939452 ei 0.057 es 0.000 et 0.000 er 0.004] ------- [36:255 -1:255 32 0] 
r 0.130896137 _35_ RTR  --- 3 message 32 [0 ffffffff 24 800] [energy 2.938804 ei 0.056 es 0.000 et 0.000 er 0.005] ------- [36:255 -1:255 32 0] 
r 0.130896194 _34_ RTR  --- 3 message 32 [0 ffffffff 24 800] [energy 2.938804 ei 0.056 es 0.000 et 0.000 er 0.005] ------- [36:255 -1:255 32 0] 
r 0.130896194 _38_ RTR  --- 3 message 32 [0 ffffffff 24 800] [energy 2.939452 ei 0.057 es 0.000 et 0.000 er 0.004] ------- [36:255 -1:255 32 0] 
r 0.130896250 _39_ RTR  --- 3 message 32 [0 ffffffff 24 800] [energy 2.939452 ei 0.057 es 0.000 et 0.000 er 0.004] ------- [36:255 -1:255 32 0] 
r 0.130896255 _33_ RTR  --- 3 message 32 [0 ffffffff 24 800] [energy 2.938804 ei 0.056 es 0.000 et 0.000 er 0.005] ------- [36:255 -1:255 32 0] 
r 0.130896312 _32_ RTR  --- 3 message 32 [0 ffffffff 24 800] [energy 2.938804 ei 0.056 es 0.000 et 0.000 er 0.005] ------- [36:255 -1:255 32 0] 
r 0.130896373 _31_ RTR  --- 3 message 32 [0 ffffffff 24 800] [energy 2.939236 ei 0.056 es 0.000 et 0.001 er 0.004] ------- [36:255 -1:255 32 0] 
r 0.130896429 _30_ RTR  --- 3 message 32 [0 ffffffff 24 800] [energy 2.938804 ei 0.056 es 0.000 et 0.000 er 0.005] ------- [36:255 -1:255 32 0] 
r 0.130896491 _29_ RTR  --- 3 message 32 [0 ffffffff 24 800] [energy 2.938804 ei 0.056 es 0.000 et 0.000 er 0.005] ------- [36:255 -1:255 32 0] 
r 0.130896547 _28_ RTR  --- 3 message 32 [0 ffffffff 24 800] [energy 2.938804 ei 0.056 es 0.000 et 0.000 er 0.005] ------- [36:255 -1:255 32 0] 
r 0.130896609 _27_ RTR  --- 3 message 32 [0 ffffffff 24 800] [energy 2.938804 ei 0.056 es 0.000 et 0.000 er 0.005] ------- [36:255 -1:255 32 0] 
r 0.130896665 _26_ RTR  --- 3 message 32 [0 ffffffff 24 800] [energy 2.938804 ei 0.056 es 0.000 et 0.000 er 0.005] ------- [36:255 -1:255 32 0] 
r 0.130896726 _25_ RTR  --- 3 message 32 [0 ffffffff 24 800] [energy 2.938804 ei 0.056 es 0.000 et 0.000 er 0.005] ------- [36:255 -1:255 32 0] 
r 0.130896783 _24_ RTR  --- 3 message 32 [0 ffffffff 24 800] [energy 2.938804 ei 0.056 es 0.000 et 0.000 er 0.005] ------- [36:255 -1:255 32 0] 
r 0.130896844 _23_ RTR  --- 3 message 32 [0 ffffffff 24 800] [energy 2.938804 ei 0.056 es 0.000 et 0.000 er 0.005] ------- [36:255 -1:255 32 0] 
r 0.130896901 _22_ RTR  --- 3 message 32 [0 ffffffff 24 800] [energy 2.938804 ei 0.056 es 0.000 et 0.000 er 0.005] ------- [36:255 -1:255 32 0] 
N -t 0.131268 -n 29 -e 2.937041
N -t 0.131268 -n 27 -e 2.937041
N -t 0.131268 -n 26 -e 2.937041
N -t 0.131268 -n 30 -e 2.937041
N -t 0.131268 -n 31 -e 2.937473
N -t 0.131268 -n 25 -e 2.937041
N -t 0.131268 -n 24 -e 2.937041
N -t 0.131268 -n 32 -e 2.937041
N -t 0.131268 -n 33 -e 2.937041
N -t 0.131268 -n 23 -e 2.937041
N -t 0.131268 -n 22 -e 2.937041
N -t 0.131268 -n 34 -e 2.937041
N -t 0.131268 -n 35 -e 2.937041
N -t 0.131268 -n 21 -e 2.937041
N -t 0.131268 -n 20 -e 2.937041
N -t 0.131268 -n 36 -e 2.938121
N -t 0.131268 -n 37 -e 2.937689
N -t 0.131268 -n 19 -e 2.937041
N -t 0.131268 -n 18 -e 2.937041
N -t 0.131268 -n 38 -e 2.937689
N -t 0.131269 -n 39 -e 2.937689
N -t 0.131269 -n 17 -e 2.937041
N -t 0.131269 -n 16 -e 2.937041
N -t 0.131269 -n 15 -e 2.937041
N -t 0.131269 -n 14 -e 2.937041
N -t 0.131269 -n 13 -e 2.937041
N -t 0.131269 -n 12 -e 2.937041
N -t 0.131269 -n 11 -e 2.937473
N -t 0.131269 -n 10 -e 2.937041
N -t 0.131269 -n 9 -e 2.937041
N -t 0.131269 -n 8 -e 2.937041
N -t 0.131269 -n 7 -e 2.937041
N -t 0.131269 -n 6 -e 2.937041
N -t 0.131269 -n 5 -e 2.937041
N -t 0.131269 -n 4 -e 2.938121
N -t 0.131269 -n 3 -e 2.937689
N -t 0.131269 -n 2 -e 2.937689
N -t 0.131269 -n 1 -e 2.937689
N -t 0.131270 -n 0 -e 2.937689
r 0.133372961 _29_ RTR  --- 4 message 32 [0 ffffffff 1c 800] [energy 2.937041 ei 0.056 es 0.000 et 0.000 er 0.006] ------- [28:255 -1:255 32 0] 
r 0.133372966 _27_ RTR  --- 4 message 32 [0 ffffffff 1c 800] [energy 2.937041 ei 0.056 es 0.000 et 0.000 er 0.006] ------- [28:255 -1:255 32 0] 
r 0.133373022 _26_ RTR  --- 4 message 32 [0 ffffffff 1c 800] [energy 2.937041 ei 0.056 es 0.000 et 0.000 er 0.006] ------- [28:255 -1:255 32 0] 
r 0.133373022 _30_ RTR  --- 4 message 32 [0 ffffffff 1c 800] [energy 2.937041 ei 0.056 es 0.000 et 0.000 er 0.006] ------- [28:255 -1:255 32 0] 
r 0.133373079 _31_ RTR  --- 4 message 32 [0 ffffffff 1c 800] [energy 2.937473 ei 0.056 es 0.000 et 0.001 er 0.005] ------- [28:255 -1:255 32 0] 
r 0.133373083 _25_ RTR  --- 4 message 32 [0 ffffffff 1c 800] [energy 2.937041 ei 0.056 es 0.000 et 0.000 er 0.006] ------- [28:255 -1:255 32 0] 
r 0.133373140 _24_ RTR  --- 4 message 32 [0 ffffffff 1c 800] [energy 2.937041 ei 0.056 es 0.000 et 0.000 er 0.006] ------- [28:255 -1:255 32 0] 
r 0.133373140 _32_ RTR  --- 4 message 32 [0 ffffffff 1c 800] [energy 2.937041 ei 0.056 es 0.000 et 0.000 er 0.006] ------- [28:255 -1:255 32 0] 
r 0.133373197 _33_ RTR  --- 4 message 32 [0 ffffffff 1c 800] [energy 2.937041 ei 0.056 es 0.000 et 0.000 er 0.006] ------- [28:255 -1:255 32 0] 
r 0.133373201 _23_ RTR  --- 4 message 32 [0 ffffffff 1c 800] [energy 2.937041 ei 0.056 es 0.000 et 0.000 er 0.006] ------- [28:255 -1:255 32 0] 
r 0.133373258 _22_ RTR  --- 4 message 32 [0 ffffffff 1c 800] [energy 2.937041 ei 0.056 es 0.000 et 0.000 er 0.006] ------- [28:255 -1:255 32 0] 
r 0.133373258 _34_ RTR  --- 4 message 32 [0 ffffffff 1c 800] [energy 2.937041 ei 0.056 es 0.000 et 0.000 er 0.006] ------- [28:255 -1:255 32 0] 
r 0.133373314 _35_ RTR  --- 4 message 32 [0 ffffffff 1c 800] [energy 2.937041 ei 0.056 es 0.000 et 0.000 er 0.006] ------- [28:255 -1:255 32 0] 
r 0.133373319 _21_ RTR  --- 4 message 32 [0 ffffffff 1c 800] [energy 2.937041 ei 0.056 es 0.000 et 0.000 er 0.006] ------- [28:255 -1:255 32 0] 
r 0.133373376 _20_ RTR  --- 4 message 32 [0 ffffffff 1c 800] [energy 2.937041 ei 0.056 es 0.000 et 0.000 er 0.006] ------- [28:255 -1:255 32 0] 
r 0.133373376 _36_ RTR  --- 4 message 32 [0 ffffffff 1c 800] [energy 2.938121 ei 0.057 es 0.000 et 0.001 er 0.004] ------- [28:255 -1:255 32 0] 
r 0.133373432 _37_ RTR  --- 4 message 32 [0 ffffffff 1c 800] [energy 2.937689 ei 0.057 es 0.000 et 0.000 er 0.005] ------- [28:255 -1:255 32 0] 
r 0.133373437 _19_ RTR  --- 4 message 32 [0 ffffffff 1c 800] [energy 2.937041 ei 0.056 es 0.000 et 0.000 er 0.006] ------- [28:255 -1:255 32 0] 
r 0.133373494 _18_ RTR  --- 4 message 32 [0 ffffffff 1c 800] [energy 2.937041 ei 0.056 es 0.000 et 0.000 er 0.006] ------- [28:255 -1:255 32 0] 
r 0.133373494 _38_ RTR  --- 4 message 32 [0 ffffffff 1c 800] [energy 2.937689 ei 0.057 es 0.000 et 0.000 er 0.005] ------- [28:255 -1:255 32 0] 
r 0.133373550 _39_ RTR  --- 4 message 32 [0 ffffffff 1c 800] [energy 2.937689 ei 0.057 es 0.000 et 0.000 er 0.005] ------- [28:255 -1:255 32 0] 
r 0.133373555 _17_ RTR  --- 4 message 32 [0 ffffffff 1c 800] [energy 2.937041 ei 0.056 es 0.000 et 0.000 er 0.006] ------- [28:255 -1:255 32 0] 
r 0.133373611 _16_ RTR  --- 4 message 32 [0 ffffffff 1c 800] [energy 2.937041 ei 0.056 es 0.000 et 0.000 er 0.006] ------- [28:255 -1:255 32 0] 
r 0.133373673 _15_ RTR  --- 4 message 32 [0 ffffffff 1c 800] [energy 2.937041 ei 0.056 es 0.000 et 0.000 er 0.006] ------- [28:255 -1:255 32 0] 
r 0.133373729 _14_ RTR  --- 4 message 32 [0 ffffffff 1c 800] [energy 2.937041 ei 0.056 es 0.000 et 0.000 er 0.006] ------- [28:255 -1:255 32 0] 
s 0.247164037 _15_ RTR  --- 5 message 32 [0 0 0 0] [energy 2.937041 ei 0.056 es 0.000 et 0.000 er 0.006] ------- [15:255 -1:255 32 0] 
N -t 0.248469 -n 14 -e 2.883653
N -t 0.248469 -n 16 -e 2.883653
N -t 0.248469 -n 13 -e 2.883653
N -t 0.248469 -n 17 -e 2.883653
N -t 0.248469 -n 12 -e 2.883653
N -t 0.248469 -n 18 -e 2.883653
N -t 0.248469 -n 11 -e 2.884085
N -t 0.248469 -n 19 -e 2.883653
N -t 0.248469 -n 10 -e 2.883653
N -t 0.248469 -n 20 -e 2.883653
N -t 0.248469 -n 9 -e 2.883653
N -t 0.248469 -n 21 -e 2.883653
N -t 0.248469 -n 8 -e 2.883653
N -t 0.248469 -n 22 -e 2.883653
N -t 0.248470 -n 7 -e 2.883653
N -t 0.248470 -n 23 -e 2.883653
N -t 0.248470 -n 6 -e 2.883653
N -t 0.248470 -n 24 -e 2.883653
N -t 0.248470 -n 5 -e 2.883653
N -t 0.248470 -n 25 -e 2.883653
N -t 0.248470 -n 4 -e 2.884733
N -t 0.248470 -n 26 -e 2.883653
N -t 0.248470 -n 3 -e 2.884301
N -t 0.248470 -n 27 -e 2.883653
N -t 0.248470 -n 2 -e 2.884301
N -t 0.248470 -n 28 -e 2.884085
N -t 0.248470 -n 1 -e 2.884301
N -t 0.248470 -n 29 -e 2.883653
N -t 0.248470 -n 0 -e 2.884301
N -t 0.248470 -n 30 -e 2.883653
N -t 0.248470 -n 31 -e 2.884085
N -t 0.248470 -n 32 -e 2.883652
N -t 0.248470 -n 33 -e 2.883652
N -t 0.248470 -n 34 -e 2.883652
N -t 0.248470 -n 35 -e 2.883652
N -t 0.248470 -n 36 -e 2.884732
N -t 0.248470 -n 37 -e 2.884300
N -t 0.248470 -n 38 -e 2.884300
N -t 0.248470 -n 39 -e 2.884300
r 0.250574093 _14_ RTR  --- 5 message 32 [0 ffffffff f 800] [energy 2.883653 ei 0.109 es 0.000 et 0.000 er 0.008] ------- [15:255 -1:255 32 0] 
r 0.250574098 _16_ RTR  --- 5 message 32 [0 ffffffff f 800] [energy 2.883653 ei 0.109 es 0.000 et 0.000 er 0.008] ------- [15:255 -1:255 32 0] 
r 0.250574155 _13_ RTR  --- 5 message 32 [0 ffffffff f 800] [energy 2.883653 ei 0.109 es 0.000 et 0.000 er 0.008] ------- [15:255 -1:255 32 0] 
r 0.250574155 _17_ RTR  --- 5 message 32 [0 ffffffff f 800] [energy 2.883653 ei 0.109 es 0.000 et 0.000 er 0.008] ------- [15:255 -1:255 32 0] 
r 0.250574211 _12_ RTR  --- 5 message 32 [0 ffffffff f 800] [energy 2.883653 ei 0.109 es 0.000 et 0.000 er 0.008] ------- [15:255 -1:255 32 0] 
r 0.250574216 _18_ RTR  --- 5 message 32 [0 ffffffff f 800] [energy 2.883653 ei 0.109 es 0.000 et 0.000 er 0.008] ------- [15:255 -1:255 32 0] 
r 0.250574272 _11_ RTR  --- 5 message 32 [0 ffffffff f 800] [energy 2.884085 ei 0.108 es 0.000 et 0.001 er 0.007] ------- [15:255 -1:255 32 0] 
r 0.250574272 _19_ RTR  --- 5 message 32 [0 ffffffff f 800] [energy 2.883653 ei 0.109 es 0.000 et 0.000 er 0.008] ------- [15:255 -1:255 32 0] 
r 0.250574329 _10_ RTR  --- 5 message 32 [0 ffffffff f 800] [energy 2.883653 ei 0.109 es 0.000 et 0.000 er 0.008] ------- [15:255 -1:255 32 0] 
r 0.250574334 _20_ RTR  --- 5 message 32 [0 ffffffff f 800] [energy 2.883653 ei 0.109 es 0.000 et 0.000 er 0.008] ------- [15:255 -1:255 32 0] 
r 0.250574390 _9_ RTR  --- 5 message 32 [0 ffffffff f 800] [energy 2.883653 ei 0.109 es 0.000 et 0.000 er 0.008] ------- [15:255 -1:255 32 0] 
r 0.250574390 _21_ RTR  --- 5 message 32 [0 ffffffff f 800] [energy 2.883653 ei 0.109 es 0.000 et 0.000 er 0.008] ------- [15:255 -1:255 32 0] 
r 0.250574447 _8_ RTR  --- 5 message 32 [0 ffffffff f 800] [energy 2.883653 ei 0.109 es 0.000 et 0.000 er 0.008] ------- [15:255 -1:255 32 0] 
r 0.250574452 _22_ RTR  --- 5 message 32 [0 ffffffff f 800] [energy 2.883653 ei 0.109 es 0.000 et 0.000 er 0.008] ------- [15:255 -1:255 32 0] 
r 0.250574508 _7_ RTR  --- 5 message 32 [0 ffffffff f 800] [energy 2.883653 ei 0.109 es 0.000 et 0.000 er 0.008] ------- [15:255 -1:255 32 0] 
r 0.250574508 _23_ RTR  --- 5 message 32 [0 ffffffff f 800] [energy 2.883653 ei 0.109 es 0.000 et 0.000 er 0.008] ------- [15:255 -1:255 32 0] 
r 0.250574565 _6_ RTR  --- 5 message 32 [0 ffffffff f 800] [energy 2.883653 ei 0.109 es 0.000 et 0.000 er 0.008] ------- [15:255 -1:255 32 0] 
r 0.250574569 _24_ RTR  --- 5 message 32 [0 ffffffff f 800] [energy 2.883653 ei 0.109 es 0.000 et 0.000 er 0.008] ------- [15:255 -1:255 32 0] 
r 0.250574626 _5_ RTR  --- 5 message 32 [0 ffffffff f 800] [energy 2.883653 ei 0.109 es 0.000 et 0.000 er 0.008] ------- [15:255 -1:255 32 0] 
r 0.250574626 _25_ RTR  --- 5 message 32 [0 ffffffff f 800] [energy 2.883653 ei 0.109 es 0.000 et 0.000 er 0.008] ------- [15:255 -1:255 32 0] 
r 0.250574683 _4_ RTR  --- 5 message 32 [0 ffffffff f 800] [energy 2.884733 ei 0.109 es 0.000 et 0.001 er 0.005] ------- [15:255 -1:255 32 0] 
r 0.250574687 _26_ RTR  --- 5 message 32 [0 ffffffff f 800] [energy 2.883653 ei 0.109 es 0.000 et 0.000 er 0.008] ------- [15:255 -1:255 32 0] 
r 0.250574744 _3_ RTR  --- 5 message 32 [0 ffffffff f 800] [energy 2.884301 ei 0.109 es 0.000 et 0.000 er 0.006] ------- [15:255 -1:255 32 0] 
r 0.250574744 _27_ RTR  --- 5 message 32 [0 ffffffff f 800] [energy 2.883653 ei 0.109 es 0.000 et 0.000 er 0.008] ------- [15:255 -1:255 32 0] 
r 0.250574800 _2_ RTR  --- 5 message 32 [0 ffffffff f 800] [energy 2.884301 ei 0.109 es 0.000 et 0.000 er 0.006] ------- [15:255 -1:255 32 0] 
r 0.250574805 _28_ RTR  --- 5 message 32 [0 ffffffff f 800] [energy 2.884085 ei 0.108 es 0.000 et 0.001 er 0.007] ------- [15:255 -1:255 32 0] 
r 0.250574862 _1_ RTR  --- 5 message 32 [0 ffffffff f 800] [energy 2.884301 ei 0.109 es 0.000 et 0.000 er 0.006] ------- [15:255 -1:255 32 0] 
r 0.250574862 _29_ RTR  --- 5 message 32 [0 ffffffff f 800] [energy 2.883653 ei 0.109 es 0.000 et 0.000 er 0.008] ------- [15:255 -1:255 32 0] 
s 0.321822596 _26_ RTR  --- 6 message 32 [0 0 0 0] [energy 2.883653 ei 0.109 es 0.000 et 0.000 er 0.008] ------- [26:255 -1:255 32 0] 
N -t 0.322168 -n 27 -e 2.849841
N -t 0.322168 -n 25 -e 2.849841
N -t 0.322168 -n 24 -e 2.849841
N -t 0.322168 -n 28 -e 2.850273
N -t 0.322168 -n 29 -e 2.849841
N -t 0.322168 -n 23 -e 2.849841
N -t 0.322168 -n 22 -e 2.849840
N -t 0.322168 -n 30 -e 2.849840
N -t 0.322168 -n 31 -e 2.850272
N -t 0.322168 -n 21 -e 2.849840
N -t 0.322168 -n 20 -e 2.849840
N -t 0.322168 -n 32 -e 2.849840
N -t 0.322168 -n 33 -e 2.849840
N -t 0.322168 -n 19 -e 2.849840
N -t 0.322168 -n 18 -e 2.849840
N -t 0.322168 -n 34 -e 2.849840
N -t 0.322168 -n 35 -e 2.849840
N -t 0.322168 -n 17 -e 2.849840
N -t 0.322168 -n 16 -e 2.849840
N -t 0.322168 -n 36 -e 2.850920
N -t 0.322168 -n 37 -e 2.850488
N -t 0.322168 -n 15 -e 2.850272
N -t 0.322168 -n 14 -e 2.849840
N -t 0.322168 -n 38 -e 2.850488
N -t 0.322168 -n 39 -e 2.850488
N -t 0.322168 -n 13 -e 2.849840
N -t 0.322168 -n 12 -e 2.849840
N -t 0.322168 -n 11 -e 2.850272
N -t 0.322169 -n 10 -e 2.849840
N -t 0.322169 -n 9 -e 2.849840
N -t 0.322169 -n 8 -e 2.849840
N -t 0.322169 -n 7 -e 2.849840
N -t 0.322169 -n 6 -e 2.849840
N -t 0.322169 -n 5 -e 2.849840
N -t 0.322169 -n 4 -e 2.850920
N -t 0.322169 -n 3 -e 2.850488
N -t 0.322169 -n 2 -e 2.850488
N -t 0.322169 -n 1 -e 2.850488
N -t 0.322169 -n 0 -e 2.850488
r 0.324272653 _27_ RTR  --- 6 message 32 [0 ffffffff 1a 800] [energy 2.849841 ei 0.141 es 0.000 et 0.000 er 0.009] ------- [26:255 -1:255 32 0] 
r 0.324272658 _25_ RTR  --- 6 message 32 [0 ffffffff 1a 800] [energy 2.849841 ei 0.141 es 0.000 et 0.000 er 0.009] ------- [26:255 -1:255 32 0] 
r 0.324272714 _24_ RTR  --- 6 message 32 [0 ffffffff 1a 800] [energy 2.849841 ei 0.141 es 0.000 et 0.000 er 0.009] ------- [26:255 -1:255 32 0] 
r 0.324272714 _28_ RTR  --- 6 message 32 [0 ffffffff 1a 800] [energy 2.850273 ei 0.141 es 0.000 et 0.001 er 0.008] ------- [26:255 -1:255 32 0] 
r 0.324272771 _29_ RTR  --- 6 message 32 [0 ffffffff 1a 800] [energy 2.849841 ei 0.141 es 0.000 et 0.000 er 0.009] ------- [26:255 -1:255 32 0] 
r 0.324272776 _23_ RTR  --- 6 message 32 [0 ffffffff 1a 800] [energy 2.849841 ei 0.141 es 0.000 et 0.000 er 0.009] ------- [26:255 -1:255 32 0] 
r 0.324272832 _22_ RTR  --- 6 message 32 [0 ffffffff 1a 800] [energy 2.849840 ei 0.141 es 0.000 et 0.000 er 0.009] ------- [26:255 -1:255 32 0] 
r 0.324272832 _30_ RTR  --- 6 message 32 [0 ffffffff 1a 800] [energy 2.849840 ei 0.141 es 0.000 et 0.000 er 0.009] ------- [26:255 -1:255 32 0] 