s 0.080671574 _1_ RTR  --- 0 message 32 [0 0 0 0] [energy 3.000000 ei 0.000 es 0.000 et 0.000 er 0.000] ------- [1:255 -1:255 32 0] 
N -t 0.082617 -n 0 -e 2.961526
N -t 0.082617 -n 11 -e 2.961526
N -t 0.082617 -n 2 -e 2.961526
N -t 0.082617 -n 10 -e 2.961526
N -t 0.082617 -n 12 -e 2.961526
N -t 0.082617 -n 21 -e 2.961526
N -t 0.082617 -n 3 -e 2.961526
N -t 0.082618 -n 20 -e 2.961526
N -t 0.082618 -n 22 -e 2.961526
N -t 0.082618 -n 13 -e 2.961526
N -t 0.082618 -n 23 -e 2.961526
N -t 0.082618 -n 31 -e 2.961526
N -t 0.082618 -n 4 -e 2.961526
N -t 0.082618 -n 30 -e 2.961526
N -t 0.082618 -n 32 -e 2.961526
N -t 0.082618 -n 14 -e 2.961526
N -t 0.082618 -n 33 -e 2.961526
N -t 0.082618 -n 24 -e 2.961526
N -t 0.082618 -n 5 -e 2.961526
N -t 0.082618 -n 15 -e 2.961526
N -t 0.082618 -n 34 -e 2.961526
r 0.084721991 _0_ RTR  --- 0 message 32 [0 ffffffff 1 800] [energy 2.961526 ei 0.037 es 0.000 et 0.000 er 0.001] ------- [1:255 -1:255 32 0] 
r 0.084721991 _11_ RTR  --- 0 message 32 [0 ffffffff 1 800] [energy 2.961526 ei 0.037 es 0.000 et 0.000 er 0.001] ------- [1:255 -1:255 32 0] 
r 0.084721991 _2_ RTR  --- 0 message 32 [0 ffffffff 1 800] [energy 2.961526 ei 0.037 es 0.000 et 0.000 er 0.001] ------- [1:255 -1:255 32 0] 
r 0.084722164 _10_ RTR  --- 0 message 32 [0 ffffffff 1 800] [energy 2.961526 ei 0.037 es 0.000 et 0.000 er 0.001] ------- [1:255 -1:255 32 0] 
r 0.084722164 _12_ RTR  --- 0 message 32 [0 ffffffff 1 800] [energy 2.961526 ei 0.037 es 0.000 et 0.000 er 0.001] ------- [1:255 -1:255 32 0] 
r 0.084722408 _21_ RTR  --- 0 message 32 [0 ffffffff 1 800] [energy 2.961526 ei 0.037 es 0.000 et 0.000 er 0.001] ------- [1:255 -1:255 32 0] 
r 0.084722408 _3_ RTR  --- 0 message 32 [0 ffffffff 1 800] [energy 2.961526 ei 0.037 es 0.000 et 0.000 er 0.001] ------- [1:255 -1:255 32 0] 
s 0.118169808 _6_ RTR  --- 1 message 32 [0 0 0 0] [energy 3.000000 ei 0.000 es 0.000 et 0.000 er 0.000] ------- [6:255 -1:255 32 0] 
N -t 0.119795 -n 5 -e 2.944148
N -t 0.119795 -n 16 -e 2.944796
N -t 0.119795 -n 7 -e 2.944796
N -t 0.119795 -n 15 -e 2.944148
N -t 0.119795 -n 17 -e 2.944796
N -t 0.119796 -n 4 -e 2.944148
N -t 0.119796 -n 26 -e 2.944796
N -t 0.119796 -n 8 -e 2.944796
N -t 0.119796 -n 25 -e 2.944796
N -t 0.119796 -n 14 -e 2.944148
N -t 0.119796 -n 27 -e 2.944796
N -t 0.119796 -n 18 -e 2.944796
N -t 0.119796 -n 24 -e 2.944148
N -t 0.119796 -n 28 -e 2.944796
N -t 0.119796 -n 3 -e 2.944148
N -t 0.119796 -n 36 -e 2.944796
N -t 0.119796 -n 9 -e 2.944796
N -t 0.119796 -n 35 -e 2.944796
N -t 0.119796 -n 13 -e 2.944148
N -t 0.119796 -n 37 -e 2.944796
N -t 0.119796 -n 19 -e 2.944796
N -t 0.119796 -n 34 -e 2.944148
N -t 0.119796 -n 23 -e 2.944148
N -t 0.119796 -n 38 -e 2.944796
N -t 0.119796 -n 29 -e 2.944796
N -t 0.119796 -n 2 -e 2.944148
N -t 0.119797 -n 12 -e 2.944148
N -t 0.119797 -n 33 -e 2.944148
N -t 0.119797 -n 39 -e 2.944796
r 0.121900225 _5_ RTR  --- 1 message 32 [0 ffffffff 6 800] [energy 2.944148 ei 0.053 es 0.000 et 0.000 er 0.003] ------- [6:255 -1:255 32 0] 
r 0.121900225 _16_ RTR  --- 1 message 32 [0 ffffffff 6 800] [energy 2.944796 ei 0.054 es 0.000 et 0.000 er 0.001] ------- [6:255 -1:255 32 0] 
r 0.121900225 _7_ RTR  --- 1 message 32 [0 ffffffff 6 800] [energy 2.944796 ei 0.054 es 0.000 et 0.000 er 0.001] ------- [6:255 -1:255 32 0] 
r 0.121900398 _15_ RTR  --- 1 message 32 [0 ffffffff 6 800] [energy 2.944148 ei 0.053 es 0.000 et 0.000 er 0.003] ------- [6:255 -1:255 32 0] 
r 0.121900398 _17_ RTR  --- 1 message 32 [0 ffffffff 6 800] [energy 2.944796 ei 0.054 es 0.000 et 0.000 er 0.001] ------- [6:255 -1:255 32 0] 
r 0.121900642 _4_ RTR  --- 1 message 32 [0 ffffffff 6 800] [energy 2.944148 ei 0.053 es 0.000 et 0.000 er 0.003] ------- [6:255 -1:255 32 0] 
r 0.121900642 _26_ RTR  --- 1 message 32 [0 ffffffff 6 800] [energy 2.944796 ei 0.054 es 0.000 et 0.000 er 0.001] ------- [6:255 -1:255 32 0] 
r 0.121900642 _8_ RTR  --- 1 message 32 [0 ffffffff 6 800] [energy 2.944796 ei 0.054 es 0.000 et 0.000 er 0.001] ------- [6:255 -1:255 32 0] 
s 0.136561445 _22_ RTR  --- 2 message 32 [0 0 0 0] [energy 2.961526 ei 0.037 es 0.000 et 0.000 er 0.001] ------- [22:255 -1:255 32 0] 
N -t 0.136907 -n 12 -e 2.935800
N -t 0.136907 -n 21 -e 2.936448
N -t 0.136907 -n 32 -e 2.936448
N -t 0.136907 -n 23 -e 2.935800
N -t 0.136907 -n 31 -e 2.936448
N -t 0.136907 -n 11 -e 2.936448
N -t 0.136907 -n 13 -e 2.935800
N -t 0.136907 -n 33 -e 2.935800
N -t 0.136907 -n 2 -e 2.935800
N -t 0.136907 -n 20 -e 2.936448
N -t 0.136907 -n 24 -e 2.935800
N -t 0.136907 -n 1 -e 2.936880
N -t 0.136907 -n 30 -e 2.936448
N -t 0.136907 -n 10 -e 2.936448
N -t 0.136907 -n 3 -e 2.935800
N -t 0.136907 -n 14 -e 2.935800
N -t 0.136907 -n 34 -e 2.935800
N -t 0.136908 -n 0 -e 2.936448
N -t 0.136908 -n 4 -e 2.935800
N -t 0.136908 -n 25 -e 2.936448
N -t 0.136908 -n 15 -e 2.935800
N -t 0.136908 -n 35 -e 2.936448
N -t 0.136908 -n 5 -e 2.935799
N -t 0.136908 -n 26 -e 2.936447
N -t 0.136908 -n 16 -e 2.936447
N -t 0.136908 -n 36 -e 2.936447
r 0.139011862 _12_ RTR  --- 2 message 32 [0 ffffffff 16 800] [energy 2.935800 ei 0.060 es 0.000 et 0.000 er 0.004] ------- [22:255 -1:255 32 0] 
r 0.139011862 _21_ RTR  --- 2 message 32 [0 ffffffff 16 800] [energy 2.936448 ei 0.061 es 0.000 et 0.000 er 0.003] ------- [22:255 -1:255 32 0] 
r 0.139011862 _32_ RTR  --- 2 message 32 [0 ffffffff 16 800] [energy 2.936448 ei 0.061 es 0.000 et 0.000 er 0.003] ------- [22:255 -1:255 32 0] 
r 0.139011862 _23_ RTR  --- 2 message 32 [0 ffffffff 16 800] [energy 2.935800 ei 0.060 es 0.000 et 0.000 er 0.004] ------- [22:255 -1:255 32 0] 
r 0.139012035 _31_ RTR  --- 2 message 32 [0 ffffffff 16 800] [energy 2.936448 ei 0.061 es 0.000 et 0.000 er 0.003] ------- [22:255 -1:255 32 0] 
r 0.139012035 _11_ RTR  --- 2 message 32 [0 ffffffff 16 800] [energy 2.936448 ei 0.061 es 0.000 et 0.000 er 0.003] ------- [22:255 -1:255 32 0] 
r 0.139012035 _13_ RTR  --- 2 message 32 [0 ffffffff 16 800] [energy 2.935800 ei 0.060 es 0.000 et 0.000 er 0.004] ------- [22:255 -1:255 32 0] 
r 0.139012035 _33_ RTR  --- 2 message 32 [0 ffffffff 16 800] [energy 2.935800 ei 0.060 es 0.000 et 0.000 er 0.004] ------- [22:255 -1:255 32 0] 
r 0.139012279 _2_ RTR  --- 2 message 32 [0 ffffffff 16 800] [energy 2.935800 ei 0.060 es 0.000 et 0.000 er 0.004] ------- [22:255 -1:255 32 0] 
r 0.139012279 _20_ RTR  --- 2 message 32 [0 ffffffff 16 800] [energy 2.936448 ei 0.061 es 0.000 et 0.000 er 0.003] ------- [22:255 -1:255 32 0] 
r 0.139012279 _24_ RTR  --- 2 message 32 [0 ffffffff 16 800] [energy 2.935800 ei 0.060 es 0.000 et 0.000 er 0.004] ------- [22:255 -1:255 32 0] 
s 0.313126268 _18_ RTR  --- 3 message 32 [0 0 0 0] [energy 2.944796 ei 0.054 es 0.000 et 0.000 er 0.001] ------- [18:255 -1:255 32 0] 
N -t 0.315712 -n 8 -e 2.855986
N -t 0.315712 -n 17 -e 2.855986
N -t 0.315712 -n 28 -e 2.855986
N -t 0.315712 -n 19 -e 2.855986
N -t 0.315712 -n 27 -e 2.855986
N -t 0.315712 -n 7 -e 2.855986
N -t 0.315712 -n 9 -e 2.855986
N -t 0.315712 -n 29 -e 2.855986
N -t 0.315712 -n 16 -e 2.855338
N -t 0.315712 -n 38 -e 2.855986
N -t 0.315712 -n 37 -e 2.855986
N -t 0.315712 -n 26 -e 2.855338
N -t 0.315712 -n 6 -e 2.856418
N -t 0.315712 -n 39 -e 2.855986
N -t 0.315712 -n 36 -e 2.855337
N -t 0.315713 -n 15 -e 2.854689
N -t 0.315713 -n 25 -e 2.855337
N -t 0.315713 -n 5 -e 2.854689
N -t 0.315713 -n 35 -e 2.855337
N -t 0.315713 -n 14 -e 2.854689
N -t 0.315713 -n 24 -e 2.854689
N -t 0.315713 -n 4 -e 2.854689
r 0.317816685 _8_ RTR  --- 3 message 32 [0 ffffffff 12 800] [energy 2.855986 ei 0.141 es 0.000 et 0.000 er 0.003] ------- [18:255 -1:255 32 0] 
r 0.317816685 _17_ RTR  --- 3 message 32 [0 ffffffff 12 800] [energy 2.855986 ei 0.141 es 0.000 et 0.000 er 0.003] ------- [18:255 -1:255 32 0] 
r 0.317816685 _28_ RTR  --- 3 message 32 [0 ffffffff 12 800] [energy 2.855986 ei 0.141 es 0.000 et 0.000 er 0.003] ------- [18:255 -1:255 32 0] 
r 0.317816685 _19_ RTR  --- 3 message 32 [0 ffffffff 12 800] [energy 2.855986 ei 0.141 es 0.000 et 0.000 er 0.003] ------- [18:255 -1:255 32 0] 
r 0.317816858 _27_ RTR  --- 3 message 32 [0 ffffffff 12 800] [energy 2.855986 ei 0.141 es 0.000 et 0.000 er 0.003] ------- [18:255 -1:255 32 0] 
r 0.317816858 _7_ RTR  --- 3 message 32 [0 ffffffff 12 800] [energy 2.855986 ei 0.141 es 0.000 et 0.000 er 0.003] ------- [18:255 -1:255 32 0] 
r 0.317816858 _9_ RTR  --- 3 message 32 [0 ffffffff 12 800] [energy 2.855986 ei 0.141 es 0.000 et 0.000 er 0.003] ------- [18:255 -1:255 32 0] 
r 0.317816858 _29_ RTR  --- 3 message 32 [0 ffffffff 12 800] [energy 2.855986 ei 0.141 es 0.000 et 0.000 er 0.003] ------- [18:255 -1:255 32 0] 
r 0.317817102 _16_ RTR  --- 3 message 32 [0 ffffffff 12 800] [energy 2.855338 ei 0.141 es 0.000 et 0.000 er 0.004] ------- [18:255 -1:255 32 0] 
r 0.317817102 _38_ RTR  --- 3 message 32 [0 ffffffff 12 800] [energy 2.855986 ei 0.141 es 0.000 et 0.000 er 0.003] ------- [18:255 -1:255 32 0] 
s 0.328015452 _33_ RTR  --- 4 message 32 [0 0 0 0] [energy 2.935800 ei 0.060 es 0.000 et 0.000 er 0.004] ------- [33:255 -1:255 32 0] 
N -t 0.329961 -n 23 -e 2.848278
N -t 0.329961 -n 32 -e 2.848926
N -t 0.329961 -n 34 -e 2.848278
N -t 0.329961 -n 22 -e 2.849358
N -t 0.329961 -n 24 -e 2.847630
N -t 0.329961 -n 13 -e 2.848277
N -t 0.329961 -n 31 -e 2.848925
N -t 0.329961 -n 35 -e 2.848277
N -t 0.329961 -n 12 -e 2.848277
N -t 0.329961 -n 21 -e 2.848925
N -t 0.329961 -n 14 -e 2.847629
N -t 0.329961 -n 25 -e 2.848277
N -t 0.329962 -n 11 -e 2.848925
N -t 0.329962 -n 15 -e 2.847629
N -t 0.329962 -n 3 -e 2.848277
N -t 0.329962 -n 30 -e 2.848925
N -t 0.329962 -n 36 -e 2.848277
N -t 0.329962 -n 2 -e 2.848277
N -t 0.329962 -n 20 -e 2.848925
N -t 0.329962 -n 4 -e 2.847629
N -t 0.329962 -n 26 -e 2.848277
N -t 0.329962 -n 1 -e 2.849357
N -t 0.329962 -n 10 -e 2.848925
N -t 0.329962 -n 5 -e 2.847629
N -t 0.329962 -n 16 -e 2.848277
N -t 0.329962 -n 37 -e 2.848925
N -t 0.329962 -n 27 -e 2.848925
N -t 0.329962 -n 0 -e 2.848925
N -t 0.329962 -n 6 -e 2.849357
r 0.332065869 _23_ RTR  --- 4 message 32 [0 ffffffff 21 800] [energy 2.848278 ei 0.147 es 0.000 et 0.000 er 0.005] ------- [33:255 -1:255 32 0] 
r 0.332065869 _32_ RTR  --- 4 message 32 [0 ffffffff 21 800] [energy 2.848926 ei 0.147 es 0.000 et 0.000 er 0.004] ------- [33:255 -1:255 32 0] 
r 0.332065869 _34_ RTR  --- 4 message 32 [0 ffffffff 21 800] [energy 2.848278 ei 0.147 es 0.000 et 0.000 er 0.005] ------- [33:255 -1:255 32 0] 
r 0.332066041 _22_ RTR  --- 4 message 32 [0 ffffffff 21 800] [energy 2.849358 ei 0.147 es 0.000 et 0.001 er 0.003] ------- [33:255 -1:255 32 0] 
r 0.332066041 _24_ RTR  --- 4 message 32 [0 ffffffff 21 800] [energy 2.847630 ei 0.146 es 0.000 et 0.000 er 0.006] ------- [33:255 -1:255 32 0] 
r 0.332066285 _13_ RTR  --- 4 message 32 [0 ffffffff 21 800] [energy 2.848277 ei 0.147 es 0.000 et 0.000 er 0.005] ------- [33:255 -1:255 32 0] 
r 0.332066285 _31_ RTR  --- 4 message 32 [0 ffffffff 21 800] [energy 2.848925 ei 0.147 es 0.000 et 0.000 er 0.004] ------- [33:255 -1:255 32 0] 
r 0.332066285 _35_ RTR  --- 4 message 32 [0 ffffffff 21 800] [energy 2.848277 ei 0.147 es 0.000 et 0.000 er 0.005] ------- [33:255 -1:255 32 0] 
s 0.417199696 _30_ RTR  --- 5 message 32 [0 0 0 0] [energy 2.848925 ei 0.147 es 0.000 et 0.000 er 0.004] ------- [30:255 -1:255 32 0] 
N -t 0.418825 -n 20 -e 2.808289
N -t 0.418825 -n 31 -e 2.808289
N -t 0.418825 -n 21 -e 2.808289
N -t 0.418826 -n 10 -e 2.808289
N -t 0.418826 -n 32 -e 2.808289
N -t 0.418826 -n 11 -e 2.808288
N -t 0.418826 -n 22 -e 2.808720
N -t 0.418826 -n 12 -e 2.807640
N -t 0.418826 -n 0 -e 2.808288
N -t 0.418826 -n 33 -e 2.808072
N -t 0.418826 -n 1 -e 2.808720
N -t 0.418826 -n 23 -e 2.807640
N -t 0.418826 -n 2 -e 2.807640
N -t 0.418826 -n 13 -e 2.807640
N -t 0.418826 -n 34 -e 2.807640
N -t 0.418826 -n 24 -e 2.806992
N -t 0.418826 -n 3 -e 2.807640
r 0.420930113 _20_ RTR  --- 5 message 32 [0 ffffffff 1e 800] [energy 2.808289 ei 0.187 es 0.000 et 0.000 er 0.005] ------- [30:255 -1:255 32 0] 
r 0.420930113 _31_ RTR  --- 5 message 32 [0 ffffffff 1e 800] [energy 2.808289 ei 0.187 es 0.000 et 0.000 er 0.005] ------- [30:255 -1:255 32 0] 
r 0.420930285 _21_ RTR  --- 5 message 32 [0 ffffffff 1e 800] [energy 2.808289 ei 0.187 es 0.000 et 0.000 er 0.005] ------- [30:255 -1:255 32 0] 
r 0.420930529 _10_ RTR  --- 5 message 32 [0 ffffffff 1e 800] [energy 2.808289 ei 0.187 es 0.000 et 0.000 er 0.005] ------- [30:255 -1:255 32 0] 
r 0.420930529 _32_ RTR  --- 5 message 32 [0 ffffffff 1e 800] [energy 2.808289 ei 0.187 es 0.000 et 0.000 er 0.005] ------- [30:255 -1:255 32 0] 
s 0.457831686 _4_ RTR  --- 6 message 32 [0 0 0 0] [energy 2.847629 ei 0.146 es 0.000 et 0.000 er 0.006] ------- [4:255 -1:255 32 0] 
N -t 0.460417 -n 3 -e 2.788276
N -t 0.460417 -n 14 -e 2.788276
N -t 0.460417 -n 5 -e 2.788276
N -t 0.460417 -n 13 -e 2.788276
N -t 0.460417 -n 15 -e 2.788276
N -t 0.460418 -n 2 -e 2.788276
N -t 0.460418 -n 24 -e 2.787628
N -t 0.460418 -n 6 -e 2.790004
N -t 0.460418 -n 23 -e 2.788276
N -t 0.460418 -n 12 -e 2.788276
N -t 0.460418 -n 25 -e 2.788924
N -t 0.460418 -n 16 -e 2.788924
N -t 0.460418 -n 22 -e 2.789356
N -t 0.460418 -n 26 -e 2.788924
N -t 0.460418 -n 1 -e 2.789356
N -t 0.460418 -n 34 -e 2.788276
N -t 0.460418 -n 7 -e 2.790220
N -t 0.460418 -n 33 -e 2.788708
N -t 0.460418 -n 11 -e 2.788924
N -t 0.460418 -n 35 -e 2.788924
N -t 0.460418 -n 17 -e 2.790220
N -t 0.460418 -n 32 -e 2.788924
N -t 0.460418 -n 21 -e 2.788924
N -t 0.460418 -n 36 -e 2.788924
N -t 0.460418 -n 27 -e 2.789572
N -t 0.460418 -n 0 -e 2.788924
N -t 0.460418 -n 8 -e 2.790220
N -t 0.460418 -n 10 -e 2.788924
N -t 0.460418 -n 18 -e 2.790652
N -t 0.460418 -n 31 -e 2.788924
N -t 0.460418 -n 37 -e 2.789572
r 0.462522103 _3_ RTR  --- 6 message 32 [0 ffffffff 4 800] [energy 2.788276 ei 0.204 es 0.000 et 0.000 er 0.008] ------- [4:255 -1:255 32 0] 
r 0.462522103 _14_ RTR  --- 6 message 32 [0 ffffffff 4 800] [energy 2.788276 ei 0.204 es 0.000 et 0.000 er 0.008] ------- [4:255 -1:255 32 0] 
r 0.462522103 _5_ RTR  --- 6 message 32 [0 ffffffff 4 800] [energy 2.788276 ei 0.204 es 0.000 et 0.000 er 0.008] ------- [4:255 -1:255 32 0] 
r 0.462522275 _13_ RTR  --- 6 message 32 [0 ffffffff 4 800] [energy 2.788276 ei 0.204 es 0.000 et 0.000 er 0.008] ------- [4:255 -1:255 32 0] 
r 0.462522275 _15_ RTR  --- 6 message 32 [0 ffffffff 4 800] [energy 2.788276 ei 0.204 es 0.000 et 0.000 er 0.008] ------- [4:255 -1:255 32 0] 
r 0.462522519 _2_ RTR  --- 6 message 32 [0 ffffffff 4 800] [energy 2.788276 ei 0.204 es 0.000 et 0.000 er 0.008] ------- [4:255 -1:255 32 0] 
r 0.462522519 _24_ RTR  --- 6 message 32 [0 ffffffff 4 800] [energy 2.787628 ei 0.203 es 0.000 et 0.000 er 0.009] ------- [4:255 -1:255 32 0] 
r 0.462522519 _6_ RTR  --- 6 message 32 [0 ffffffff 4 800] [energy 2.790004 ei 0.205 es 0.000 et 0.001 er 0.004] ------- [4:255 -1:255 32 0] 
s 0.466527473 _11_ RTR  --- 7 message 32 [0 0 0 0] [energy 2.788924 ei 0.205 es 0.000 et 0.000 er 0.006] ------- [11:255 -1:255 32 0] 
N -t 0.467833 -n 1 -e 2.785371
N -t 0.467833 -n 10 -e 2.784939
N -t 0.467833 -n 21 -e 2.784939
N -t 0.467833 -n 12 -e 2.784291
N -t 0.467833 -n 20 -e 2.785587
N -t 0.467833 -n 0 -e 2.784939
N -t 0.467833 -n 2 -e 2.784291
N -t 0.467833 -n 22 -e 2.785371
N -t 0.467833 -n 31 -e 2.784939
N -t 0.467833 -n 13 -e 2.784291
N -t 0.467833 -n 30 -e 2.786019
N -t 0.467833 -n 32 -e 2.784939
N -t 0.467833 -n 3 -e 2.784291
N -t 0.467833 -n 23 -e 2.784291
N -t 0.467834 -n 33 -e 2.784723
N -t 0.467834 -n 14 -e 2.784291
N -t 0.467834 -n 4 -e 2.784723
N -t 0.467834 -n 24 -e 2.783643
N -t 0.467834 -n 34 -e 2.784291
N -t 0.467834 -n 15 -e 2.784291
N -t 0.467834 -n 5 -e 2.784291
N -t 0.467834 -n 25 -e 2.784939
r 0.469937889 _1_ RTR  --- 7 message 32 [0 ffffffff b 800] [energy 2.785371 ei 0.207 es 0.000 et 0.001 er 0.007] ------- [11:255 -1:255 32 0] 
r 0.469937889 _10_ RTR  --- 7 message 32 [0 ffffffff b 800] [energy 2.784939 ei 0.207 es 0.000 et 0.000 er 0.008] ------- [11:255 -1:255 32 0] 
r 0.469937889 _21_ RTR  --- 7 message 32 [0 ffffffff b 800] [energy 2.784939 ei 0.207 es 0.000 et 0.000 er 0.008] ------- [11:255 -1:255 32 0] 
r 0.469937889 _12_ RTR  --- 7 message 32 [0 ffffffff b 800] [energy 2.784291 ei 0.207 es 0.000 et 0.000 er 0.009] ------- [11:255 -1:255 32 0] 
r 0.469938062 _20_ RTR  --- 7 message 32 [0 ffffffff b 800] [energy 2.785587 ei 0.208 es 0.000 et 0.000 er 0.006] ------- [11:255 -1:255 32 0] 
r 0.469938062 _0_ RTR  --- 7 message 32 [0 ffffffff b 800] [energy 2.784939 ei 0.207 es 0.000 et 0.000 er 0.008] ------- [11:255 -1:255 32 0] 
r 0.469938062 _2_ RTR  --- 7 message 32 [0 ffffffff b 800] [energy 2.784291 ei 0.207 es 0.000 et 0.000 er 0.009] ------- [11:255 -1:255 32 0] 
r 0.469938062 _22_ RTR  --- 7 message 32 [0 ffffffff b 800] [energy 2.785371 ei 0.207 es 0.000 et 0.001 er 0.007] ------- [11:255 -1:255 32 0] 
r 0.469938306 _31_ RTR  --- 7 message 32 [0 ffffffff b 800] [energy 2.784939 ei 0.207 es 0.000 et 0.000 er 0.008] ------- [11:255 -1:255 32 0] 
r 0.469938306 _13_ RTR  --- 7 message 32 [0 ffffffff b 800] [energy 2.784291 ei 0.207 es 0.000 et 0.000 er 0.009] ------- [11:255 -1:255 32 0] 
s 0.526482483 _27_ RTR  --- 8 message 32 [0 0 0 0] [energy 2.789572 ei 0.205 es 0.000 et 0.000 er 0.005] ------- [27:255 -1:255 32 0] 
N -t 0.527148 -n 17 -e 2.759543
N -t 0.527148 -n 26 -e 2.758247
N -t 0.527148 -n 37 -e 2.758895
N -t 0.527148 -n 28 -e 2.760191
N -t 0.527148 -n 36 -e 2.758247
N -t 0.527148 -n 16 -e 2.758247
N -t 0.527148 -n 18 -e 2.759975
N -t 0.527148 -n 38 -e 2.760191
N -t 0.527148 -n 7 -e 2.759543
N -t 0.527148 -n 25 -e 2.757599
N -t 0.527148 -n 29 -e 2.760191
N -t 0.527148 -n 6 -e 2.759327
N -t 0.527148 -n 35 -e 2.758247
N -t 0.527148 -n 15 -e 2.756951
N -t 0.527148 -n 8 -e 2.759543
N -t 0.527148 -n 19 -e 2.760191
N -t 0.527148 -n 39 -e 2.760191
N -t 0.527149 -n 5 -e 2.756951
N -t 0.527149 -n 9 -e 2.760191
N -t 0.527149 -n 24 -e 2.756303
N -t 0.527149 -n 34 -e 2.756951
N -t 0.527149 -n 14 -e 2.756951
N -t 0.527149 -n 4 -e 2.757383
N -t 0.527149 -n 23 -e 2.756951
N -t 0.527149 -n 33 -e 2.757383
N -t 0.527149 -n 13 -e 2.756951
r 0.529252900 _17_ RTR  --- 8 message 32 [0 ffffffff 1b 800] [energy 2.759543 ei 0.235 es 0.000 et 0.000 er 0.005] ------- [27:255 -1:255 32 0] 
r 0.529252900 _26_ RTR  --- 8 message 32 [0 ffffffff 1b 800] [energy 2.758247 ei 0.234 es 0.000 et 0.000 er 0.008] ------- [27:255 -1:255 32 0] 
r 0.529252900 _37_ RTR  --- 8 message 32 [0 ffffffff 1b 800] [energy 2.758895 ei 0.235 es 0.000 et 0.000 er 0.006] ------- [27:255 -1:255 32 0] 
r 0.529252900 _28_ RTR  --- 8 message 32 [0 ffffffff 1b 800] [energy 2.760191 ei 0.236 es 0.000 et 0.000 er 0.004] ------- [27:255 -1:255 32 0] 
r 0.529253073 _36_ RTR  --- 8 message 32 [0 ffffffff 1b 800] [energy 2.758247 ei 0.234 es 0.000 et 0.000 er 0.008] ------- [27:255 -1:255 32 0] 
r 0.529253073 _16_ RTR  --- 8 message 32 [0 ffffffff 1b 800] [energy 2.758247 ei 0.234 es 0.000 et 0.000 er 0.008] ------- [27:255 -1:255 32 0] 
r 0.529253073 _18_ RTR  --- 8 message 32 [0 ffffffff 1b 800] [energy 2.759975 ei 0.235 es 0.000 et 0.001 er 0.004] ------- [27:255 -1:255 32 0] 
r 0.529253073 _38_ RTR  --- 8 message 32 [0 ffffffff 1b 800] [energy 2.760191 ei 0.236 es 0.000 et 0.000 er 0.004] ------- [27:255 -1:255 32 0] 
r 0.529253317 _7_ RTR  --- 8 message 32 [0 ffffffff 1b 800] [energy 2.759543 ei 0.235 es 0.000 et 0.000 er 0.005] ------- [27:255 -1:255 32 0] 
r 0.529253317 _25_ RTR  --- 8 message 32 [0 ffffffff 1b 800] [energy 2.757599 ei 0.233 es 0.000 et 0.000 er 0.009] ------- [27:255 -1:255 32 0] 
r 0.529253317 _29_ RTR  --- 8 message 32 [0 ffffffff 1b 800] [energy 2.760191 ei 0.236 es 0.000 et 0.000 er 0.004] ------- [27:255 -1:255 32 0] 
s 0.534269246 _34_ RTR  --- 9 message 32 [0 0 0 0] [energy 2.756951 ei 0.233 es 0.000 et 0.000 er 0.010] ------- [34:255 -1:255 32 0] 
N -t 0.536535 -n 24 -e 2.751431
N -t 0.536535 -n 33 -e 2.752511
N -t 0.536535 -n 35 -e 2.753375
N -t 0.536535 -n 23 -e 2.752079
N -t 0.536535 -n 25 -e 2.752727
N -t 0.536535 -n 14 -e 2.752079
N -t 0.536535 -n 32 -e 2.753375
N -t 0.536535 -n 36 -e 2.753375
N -t 0.536535 -n 13 -e 2.752079
N -t 0.536535 -n 22 -e 2.753807
N -t 0.536535 -n 15 -e 2.752079
N -t 0.536535 -n 26 -e 2.753375
N -t 0.536535 -n 12 -e 2.752727
N -t 0.536535 -n 16 -e 2.753375
N -t 0.536535 -n 4 -e 2.752511
N -t 0.536535 -n 31 -e 2.753375
N -t 0.536535 -n 37 -e 2.754023
N -t 0.536536 -n 3 -e 2.752727
N -t 0.536536 -n 21 -e 2.753375
N -t 0.536536 -n 5 -e 2.752079
N -t 0.536536 -n 27 -e 2.754455
N -t 0.536536 -n 2 -e 2.752727
N -t 0.536536 -n 11 -e 2.753807
N -t 0.536536 -n 6 -e 2.754455
N -t 0.536536 -n 17 -e 2.754671
N -t 0.536536 -n 30 -e 2.754455
N -t 0.536536 -n 38 -e 2.755319
N -t 0.536536 -n 20 -e 2.754023
N -t 0.536536 -n 28 -e 2.755319
N -t 0.536536 -n 1 -e 2.753807
N -t 0.536536 -n 7 -e 2.754671
r 0.538639662 _24_ RTR  --- 9 message 32 [0 ffffffff 22 800] [energy 2.751431 ei 0.236 es 0.000 et 0.000 er 0.013] ------- [34:255 -1:255 32 0] 
r 0.538639662 _33_ RTR  --- 9 message 32 [0 ffffffff 22 800] [energy 2.752511 ei 0.236 es 0.000 et 0.001 er 0.011] ------- [34:255 -1:255 32 0] 
r 0.538639662 _35_ RTR  --- 9 message 32 [0 ffffffff 22 800] [energy 2.753375 ei 0.238 es 0.000 et 0.000 er 0.009] ------- [34:255 -1:255 32 0] 
r 0.538639835 _23_ RTR  --- 9 message 32 [0 ffffffff 22 800] [energy 2.752079 ei 0.236 es 0.000 et 0.000 er 0.012] ------- [34:255 -1:255 32 0] 
r 0.538639835 _25_ RTR  --- 9 message 32 [0 ffffffff 22 800] [energy 2.752727 ei 0.237 es 0.000 et 0.000 er 0.010] ------- [34:255 -1:255 32 0] 
r 0.538640079 _14_ RTR  --- 9 message 32 [0 ffffffff 22 800] [energy 2.752079 ei 0.236 es 0.000 et 0.000 er 0.012] ------- [34:255 -1:255 32 0] 
r 0.538640079 _32_ RTR  --- 9 message 32 [0 ffffffff 22 800] [energy 2.753375 ei 0.238 es 0.000 et 0.000 er 0.009] ------- [34:255 -1:255 32 0] 
r 0.538640079 _36_ RTR  --- 9 message 32 [0 ffffffff 22 800] [energy 2.753375 ei 0.238 es 0.000 et 0.000 er 0.009] ------- [34:255 -1:255 32 0] 
s 0.561056360 _39_ RTR  --- 10 message 32 [0 0 0 0] [energy 2.760191 ei 0.236 es 0.000 et 0.000 er 0.004] ------- [39:255 -1:255 32 0] 
N -t 0.562682 -n 29 -e 2.743553
N -t 0.562682 -n 38 -e 2.742905
N -t 0.562682 -n 28 -e 2.742905
N -t 0.562682 -n 19 -e 2.743553
N -t 0.562682 -n 37 -e 2.741609
N -t 0.562682 -n 18 -e 2.743337
N -t 0.562682 -n 27 -e 2.742041
N -t 0.562683 -n 17 -e 2.742257
N -t 0.562683 -n 9 -e 2.743553
N -t 0.562683 -n 36 -e 2.740961
N -t 0.562683 -n 8 -e 2.742905
N -t 0.562683 -n 26 -e 2.740961
N -t 0.562683 -n 7 -e 2.742257
N -t 0.562683 -n 16 -e 2.740961
N -t 0.562683 -n 35 -e 2.740961
N -t 0.562683 -n 25 -e 2.740313
N -t 0.562683 -n 6 -e 2.742041
r 0.564786777 _29_ RTR  --- 10 message 32 [0 ffffffff 27 800] [energy 2.743553 ei 0.251 es 0.000 et 0.000 er 0.005] ------- [39:255 -1:255 32 0] 
r 0.564786777 _38_ RTR  --- 10 message 32 [0 ffffffff 27 800] [energy 2.742905 ei 0.251 es 0.000 et 0.000 er 0.006] ------- [39:255 -1:255 32 0] 
r 0.564786949 _28_ RTR  --- 10 message 32 [0 ffffffff 27 800] [energy 2.742905 ei 0.251 es 0.000 et 0.000 er 0.006] ------- [39:255 -1:255 32 0] 
r 0.564787193 _19_ RTR  --- 10 message 32 [0 ffffffff 27 800] [energy 2.743553 ei 0.251 es 0.000 et 0.000 er 0.005] ------- [39:255 -1:255 32 0] 
r 0.564787193 _37_ RTR  --- 10 message 32 [0 ffffffff 27 800] [energy 2.741609 ei 0.249 es 0.000 et 0.000 er 0.009] ------- [39:255 -1:255 32 0] 
s 0.684797127 _7_ RTR  --- 11 message 32 [0 0 0 0] [energy 2.742257 ei 0.250 es 0.000 et 0.000 er 0.008] ------- [7:255 -1:255 32 0] 
N -t 0.685143 -n 6 -e 2.686286
N -t 0.685143 -n 17 -e 2.686502
N -t 0.685143 -n 8 -e 2.687150
N -t 0.685143 -n 16 -e 2.685206
N -t 0.685143 -n 18 -e 2.687582
N -t 0.685143 -n 5 -e 2.684558
N -t 0.685143 -n 27 -e 2.686286
N -t 0.685143 -n 9 -e 2.687798
N -t 0.685143 -n 26 -e 2.685206
N -t 0.685143 -n 15 -e 2.684558
N -t 0.685143 -n 28 -e 2.687150
N -t 0.685143 -n 19 -e 2.687798
N -t 0.685143 -n 25 -e 2.684558
N -t 0.685143 -n 29 -e 2.687798
N -t 0.685143 -n 4 -e 2.684989
N -t 0.685143 -n 37 -e 2.685853
N -t 0.685143 -n 36 -e 2.685205
N -t 0.685143 -n 14 -e 2.684557
N -t 0.685143 -n 38 -e 2.687149
N -t 0.685144 -n 35 -e 2.685205
N -t 0.685144 -n 24 -e 2.683909
N -t 0.685144 -n 39 -e 2.688229
N -t 0.685144 -n 3 -e 2.685205
N -t 0.685144 -n 13 -e 2.684557
N -t 0.685144 -n 34 -e 2.684989
r 0.687247543 _6_ RTR  --- 11 message 32 [0 ffffffff 7 800] [energy 2.686286 ei 0.304 es 0.000 et 0.001 er 0.009] ------- [7:255 -1:255 32 0] 
r 0.687247543 _17_ RTR  --- 11 message 32 [0 ffffffff 7 800] [energy 2.686502 ei 0.304 es 0.000 et 0.000 er 0.009] ------- [7:255 -1:255 32 0] 
r 0.687247543 _8_ RTR  --- 11 message 32 [0 ffffffff 7 800] [energy 2.687150 ei 0.305 es 0.000 et 0.000 er 0.008] ------- [7:255 -1:255 32 0] 
r 0.687247716 _16_ RTR  --- 11 message 32 [0 ffffffff 7 800] [energy 2.685206 ei 0.303 es 0.000 et 0.000 er 0.012] ------- [7:255 -1:255 32 0] 
r 0.687247716 _18_ RTR  --- 11 message 32 [0 ffffffff 7 800] [energy 2.687582 ei 0.305 es 0.000 et 0.001 er 0.007] ------- [7:255 -1:255 32 0] 
r 0.687247960 _5_ RTR  --- 11 message 32 [0 ffffffff 7 800] [energy 2.684558 ei 0.302 es 0.000 et 0.000 er 0.013] ------- [7:255 -1:255 32 0] 
r 0.687247960 _27_ RTR  --- 11 message 32 [0 ffffffff 7 800] [energy 2.686286 ei 0.304 es 0.000 et 0.001 er 0.009] ------- [7:255 -1:255 32 0] 
r 0.687247960 _9_ RTR  --- 11 message 32 [0 ffffffff 7 800] [energy 2.687798 ei 0.306 es 0.000 et 0.000 er 0.006] ------- [7:255 -1:255 32 0] 
s 0.764173693 _35_ RTR  --- 12 message 32 [0 0 0 0] [energy 2.685205 ei 0.303 es 0.000 et 0.000 er 0.012] ------- [35:255 -1:255 32 0] 
N -t 0.766439 -n 25 -e 2.647326
N -t 0.766439 -n 34 -e 2.647758
N -t 0.766439 -n 36 -e 2.647974
N -t 0.766439 -n 24 -e 2.646678
N -t 0.766439 -n 26 -e 2.647974
N -t 0.766440 -n 15 -e 2.647326
N -t 0.766440 -n 33 -e 2.648406
N -t 0.766440 -n 37 -e 2.648622
N -t 0.766440 -n 14 -e 2.647326
N -t 0.766440 -n 23 -e 2.647974
N -t 0.766440 -n 16 -e 2.647974
N -t 0.766440 -n 27 -e 2.649054
N -t 0.766440 -n 13 -e 2.647326
N -t 0.766440 -n 17 -e 2.649270
N -t 0.766440 -n 5 -e 2.647326
N -t 0.766440 -n 32 -e 2.649270
N -t 0.766440 -n 38 -e 2.649918
N -t 0.766440 -n 4 -e 2.647758
N -t 0.766440 -n 22 -e 2.649702
N -t 0.766440 -n 6 -e 2.649054
N -t 0.766440 -n 28 -e 2.649918
N -t 0.766440 -n 3 -e 2.647974
N -t 0.766440 -n 12 -e 2.648622
N -t 0.766440 -n 7 -e 2.649702
N -t 0.766440 -n 18 -e 2.650350
N -t 0.766440 -n 31 -e 2.649270
N -t 0.766440 -n 39 -e 2.650998
N -t 0.766440 -n 21 -e 2.649270
N -t 0.766440 -n 29 -e 2.650566
N -t 0.766440 -n 2 -e 2.648622
N -t 0.766440 -n 8 -e 2.649918
r 0.768544109 _25_ RTR  --- 12 message 32 [0 ffffffff 23 800] [energy 2.647326 ei 0.338 es 0.000 et 0.000 er 0.014] ------- [35:255 -1:255 32 0] 
r 0.768544109 _34_ RTR  --- 12 message 32 [0 ffffffff 23 800] [energy 2.647758 ei 0.338 es 0.000 et 0.001 er 0.013] ------- [35:255 -1:255 32 0] 
r 0.768544109 _36_ RTR  --- 12 message 32 [0 ffffffff 23 800] [energy 2.647974 ei 0.339 es 0.000 et 0.000 er 0.013] ------- [35:255 -1:255 32 0] 
r 0.768544282 _24_ RTR  --- 12 message 32 [0 ffffffff 23 800] [energy 2.646678 ei 0.338 es 0.000 et 0.000 er 0.016] ------- [35:255 -1:255 32 0] 
r 0.768544282 _26_ RTR  --- 12 message 32 [0 ffffffff 23 800] [energy 2.647974 ei 0.339 es 0.000 et 0.000 er 0.013] ------- [35:255 -1:255 32 0] 
r 0.768544526 _15_ RTR  --- 12 message 32 [0 ffffffff 23 800] [energy 2.647326 ei 0.338 es 0.000 et 0.000 er 0.014] ------- [35:255 -1:255 32 0] 
r 0.768544526 _33_ RTR  --- 12 message 32 [0 ffffffff 23 800] [energy 2.648406 ei 0.339 es 0.000 et 0.001 er 0.012] ------- [35:255 -1:255 32 0] 
r 0.768544526 _37_ RTR  --- 12 message 32 [0 ffffffff 23 800] [energy 2.648622 ei 0.340 es 0.000 et 0.000 er 0.012] ------- [35:255 -1:255 32 0] 
s 0.875803877 _10_ RTR  --- 13 message 32 [0 0 0 0] [energy 2.784939 ei 0.207 es 0.000 et 0.000 er 0.008] ------- [10:255 -1:255 32 0] 
N -t 0.876149 -n 0 -e 2.600549
N -t 0.876149 -n 20 -e 2.600549
N -t 0.876149 -n 11 -e 2.600333
N -t 0.876149 -n 1 -e 2.600333
N -t 0.876149 -n 21 -e 2.599253
N -t 0.876150 -n 30 -e 2.600981
N -t 0.876150 -n 12 -e 2.598605
N -t 0.876150 -n 31 -e 2.599253
N -t 0.876150 -n 2 -e 2.598605
N -t 0.876150 -n 22 -e 2.599685
N -t 0.876150 -n 32 -e 2.599252
N -t 0.876150 -n 13 -e 2.597308
N -t 0.876150 -n 3 -e 2.597956
N -t 0.876150 -n 23 -e 2.597956
N -t 0.876150 -n 33 -e 2.598388
N -t 0.876151 -n 14 -e 2.597308
N -t 0.876151 -n 4 -e 2.597740
N -t 0.876151 -n 24 -e 2.596660
r 0.878254294 _0_ RTR  --- 13 message 32 [0 ffffffff a 800] [energy 2.600549 ei 0.390 es 0.000 et 0.000 er 0.009] ------- [10:255 -1:255 32 0] 
r 0.878254294 _20_ RTR  --- 13 message 32 [0 ffffffff a 800] [energy 2.600549 ei 0.390 es 0.000 et 0.000 er 0.009] ------- [10:255 -1:255 32 0] 
r 0.878254294 _11_ RTR  --- 13 message 32 [0 ffffffff a 800] [energy 2.600333 ei 0.390 es 0.000 et 0.001 er 0.009] ------- [10:255 -1:255 32 0] 
r 0.878254466 _1_ RTR  --- 13 message 32 [0 ffffffff a 800] [energy 2.600333 ei 0.390 es 0.000 et 0.001 er 0.009] ------- [10:255 -1:255 32 0] 
r 0.878254466 _21_ RTR  --- 13 message 32 [0 ffffffff a 800] [energy 2.599253 ei 0.389 es 0.000 et 0.000 er 0.012] ------- [10:255 -1:255 32 0] 
r 0.878254710 _30_ RTR  --- 13 message 32 [0 ffffffff a 800] [energy 2.600981 ei 0.390 es 0.000 et 0.001 er 0.008] ------- [10:255 -1:255 32 0] 
r 0.878254710 _12_ RTR  --- 13 message 32 [0 ffffffff a 800] [energy 2.598605 ei 0.388 es 0.000 et 0.000 er 0.013] ------- [10:255 -1:255 32 0] 
s 0.884084341 _12_ RTR  --- 14 message 32 [0 0 0 0] [energy 2.598605 ei 0.388 es 0.000 et 0.000 er 0.013] ------- [12:255 -1:255 32 0] 
N -t 0.884430 -n 2 -e 2.594231
N -t 0.884430 -n 11 -e 2.595959
N -t 0.884430 -n 22 -e 2.595311
N -t 0.884430 -n 13 -e 2.592935
N -t 0.884430 -n 21 -e 2.594879
N -t 0.884430 -n 1 -e 2.595959
N -t 0.884430 -n 3 -e 2.593583
N -t 0.884430 -n 23 -e 2.593583
N -t 0.884430 -n 10 -e 2.596606
N -t 0.884430 -n 32 -e 2.594878
N -t 0.884430 -n 14 -e 2.592934
N -t 0.884430 -n 31 -e 2.594878
N -t 0.884430 -n 20 -e 2.596174
N -t 0.884430 -n 0 -e 2.596174
N -t 0.884430 -n 33 -e 2.594014
N -t 0.884430 -n 4 -e 2.593366
N -t 0.884430 -n 24 -e 2.592286