s 0.036328457 _11_ RTR  --- 0 message 32 [0 0 0 0] [energy 3.000000 ei 0.000 es 0.000 et 0.000 er 0.000] ------- [11:255 -1:255 32 0] 
N -t 0.036674 -n 1 -e 2.982201
N -t 0.036674 -n 10 -e 2.982201
N -t 0.036674 -n 21 -e 2.982201
N -t 0.036674 -n 12 -e 2.982201
N -t 0.036674 -n 20 -e 2.982201
N -t 0.036674 -n 0 -e 2.982201
N -t 0.036674 -n 2 -e 2.982201
N -t 0.036674 -n 22 -e 2.982201
N -t 0.036674 -n 31 -e 2.982201
N -t 0.036674 -n 13 -e 2.982201
N -t 0.036674 -n 30 -e 2.982201
N -t 0.036674 -n 32 -e 2.982201
N -t 0.036674 -n 3 -e 2.982201
N -t 0.036674 -n 23 -e 2.982201
N -t 0.036675 -n 33 -e 2.982200
N -t 0.036675 -n 14 -e 2.982200
N -t 0.036675 -n 4 -e 2.982200
N -t 0.036675 -n 24 -e 2.982200
N -t 0.036675 -n 34 -e 2.982200
N -t 0.036675 -n 15 -e 2.982200
N -t 0.036675 -n 5 -e 2.982200
N -t 0.036675 -n 25 -e 2.982200
r 0.038778874 _1_ RTR  --- 0 message 32 [0 ffffffff b 800] [energy 2.982201 ei 0.017 es 0.000 et 0.000 er 0.001] ------- [11:255 -1:255 32 0] 
r 0.038778874 _10_ RTR  --- 0 message 32 [0 ffffffff b 800] [energy 2.982201 ei 0.017 es 0.000 et 0.000 er 0.001] ------- [11:255 -1:255 32 0] 
r 0.038778874 _21_ RTR  --- 0 message 32 [0 ffffffff b 800] [energy 2.982201 ei 0.017 es 0.000 et 0.000 er 0.001] ------- [11:255 -1:255 32 0] 
r 0.038778874 _12_ RTR  --- 0 message 32 [0 ffffffff b 800] [energy 2.982201 ei 0.017 es 0.000 et 0.000 er 0.001] ------- [11:255 -1:255 32 0] 
r 0.038779046 _20_ RTR  --- 0 message 32 [0 ffffffff b 800] [energy 2.982201 ei 0.017 es 0.000 et 0.000 er 0.001] ------- [11:255 -1:255 32 0] 
r 0.038779046 _0_ RTR  --- 0 message 32 [0 ffffffff b 800] [energy 2.982201 ei 0.017 es 0.000 et 0.000 er 0.001] ------- [11:255 -1:255 32 0] 
r 0.038779046 _2_ RTR  --- 0 message 32 [0 ffffffff b 800] [energy 2.982201 ei 0.017 es 0.000 et 0.000 er 0.001] ------- [11:255 -1:255 32 0] 
r 0.038779046 _22_ RTR  --- 0 message 32 [0 ffffffff b 800] [energy 2.982201 ei 0.017 es 0.000 et 0.000 er 0.001] ------- [11:255 -1:255 32 0] 
r 0.038779290 _31_ RTR  --- 0 message 32 [0 ffffffff b 800] [energy 2.982201 ei 0.017 es 0.000 et 0.000 er 0.001] ------- [11:255 -1:255 32 0] 
r 0.038779290 _13_ RTR  --- 0 message 32 [0 ffffffff b 800] [energy 2.982201 ei 0.017 es 0.000 et 0.000 er 0.001] ------- [11:255 -1:255 32 0] 
s 0.073282045 _4_ RTR  --- 1 message 32 [0 0 0 0] [energy 2.982200 ei 0.017 es 0.000 et 0.000 er 0.001] ------- [4:255 -1:255 32 0] 
N -t 0.074587 -n 3 -e 2.964492
N -t 0.074587 -n 14 -e 2.964492
N -t 0.074587 -n 5 -e 2.964492
N -t 0.074588 -n 13 -e 2.964492
N -t 0.074588 -n 15 -e 2.964492
N -t 0.074588 -n 2 -e 2.964491
N -t 0.074588 -n 24 -e 2.964491
N -t 0.074588 -n 6 -e 2.965139
N -t 0.074588 -n 23 -e 2.964491
N -t 0.074588 -n 12 -e 2.964491
N -t 0.074588 -n 25 -e 2.964491
N -t 0.074588 -n 16 -e 2.965139
N -t 0.074588 -n 22 -e 2.964491
N -t 0.074588 -n 26 -e 2.965139
N -t 0.074588 -n 1 -e 2.964491
N -t 0.074588 -n 34 -e 2.964491
N -t 0.074588 -n 7 -e 2.965139
N -t 0.074588 -n 33 -e 2.964491
N -t 0.074588 -n 11 -e 2.964923
N -t 0.074588 -n 35 -e 2.965139
N -t 0.074588 -n 17 -e 2.965139
N -t 0.074589 -n 32 -e 2.964491
N -t 0.074589 -n 21 -e 2.964491
N -t 0.074589 -n 36 -e 2.965139
N -t 0.074589 -n 27 -e 2.965139
N -t 0.074589 -n 0 -e 2.964491
N -t 0.074589 -n 8 -e 2.965139
N -t 0.074589 -n 10 -e 2.964491
N -t 0.074589 -n 18 -e 2.965139
N -t 0.074589 -n 31 -e 2.964491
N -t 0.074589 -n 37 -e 2.965139
r 0.076692462 _3_ RTR  --- 1 message 32 [0 ffffffff 4 800] [energy 2.964492 ei 0.033 es 0.000 et 0.000 er 0.003] ------- [4:255 -1:255 32 0] 
r 0.076692462 _14_ RTR  --- 1 message 32 [0 ffffffff 4 800] [energy 2.964492 ei 0.033 es 0.000 et 0.000 er 0.003] ------- [4:255 -1:255 32 0] 
r 0.076692462 _5_ RTR  --- 1 message 32 [0 ffffffff 4 800] [energy 2.964492 ei 0.033 es 0.000 et 0.000 er 0.003] ------- [4:255 -1:255 32 0] 
r 0.076692634 _13_ RTR  --- 1 message 32 [0 ffffffff 4 800] [energy 2.964492 ei 0.033 es 0.000 et 0.000 er 0.003] ------- [4:255 -1:255 32 0] 
r 0.076692634 _15_ RTR  --- 1 message 32 [0 ffffffff 4 800] [energy 2.964492 ei 0.033 es 0.000 et 0.000 er 0.003] ------- [4:255 -1:255 32 0] 
r 0.076692878 _2_ RTR  --- 1 message 32 [0 ffffffff 4 800] [energy 2.964491 ei 0.033 es 0.000 et 0.000 er 0.003] ------- [4:255 -1:255 32 0] 
r 0.076692878 _24_ RTR  --- 1 message 32 [0 ffffffff 4 800] [energy 2.964491 ei 0.033 es 0.000 et 0.000 er 0.003] ------- [4:255 -1:255 32 0] 
r 0.076692878 _6_ RTR  --- 1 message 32 [0 ffffffff 4 800] [energy 2.965139 ei 0.034 es 0.000 et 0.000 er 0.001] ------- [4:255 -1:255 32 0] 
s 0.088584275 _31_ RTR  --- 2 message 32 [0 0 0 0] [energy 2.964491 ei 0.033 es 0.000 et 0.000 er 0.003] ------- [31:255 -1:255 32 0] 
N -t 0.090530 -n 21 -e 2.956670
N -t 0.090530 -n 30 -e 2.957318
N -t 0.090530 -n 32 -e 2.956670
N -t 0.090530 -n 20 -e 2.957318
N -t 0.090530 -n 22 -e 2.956670
N -t 0.090530 -n 11 -e 2.957101
N -t 0.090530 -n 33 -e 2.956669
N -t 0.090530 -n 10 -e 2.956669
N -t 0.090530 -n 12 -e 2.956669
N -t 0.090530 -n 23 -e 2.956669
N -t 0.090530 -n 13 -e 2.956669
N -t 0.090531 -n 1 -e 2.956669
N -t 0.090531 -n 34 -e 2.956669
N -t 0.090531 -n 0 -e 2.956669
N -t 0.090531 -n 2 -e 2.956669
N -t 0.090531 -n 24 -e 2.956669
N -t 0.090531 -n 3 -e 2.956669
N -t 0.090531 -n 14 -e 2.956669
N -t 0.090531 -n 35 -e 2.957317
N -t 0.090531 -n 25 -e 2.956669
N -t 0.090531 -n 4 -e 2.957101
r 0.092634691 _21_ RTR  --- 2 message 32 [0 ffffffff 1f 800] [energy 2.956670 ei 0.039 es 0.000 et 0.000 er 0.004] ------- [31:255 -1:255 32 0] 
r 0.092634691 _30_ RTR  --- 2 message 32 [0 ffffffff 1f 800] [energy 2.957318 ei 0.040 es 0.000 et 0.000 er 0.003] ------- [31:255 -1:255 32 0] 
r 0.092634691 _32_ RTR  --- 2 message 32 [0 ffffffff 1f 800] [energy 2.956670 ei 0.039 es 0.000 et 0.000 er 0.004] ------- [31:255 -1:255 32 0] 
r 0.092634864 _20_ RTR  --- 2 message 32 [0 ffffffff 1f 800] [energy 2.957318 ei 0.040 es 0.000 et 0.000 er 0.003] ------- [31:255 -1:255 32 0] 
r 0.092634864 _22_ RTR  --- 2 message 32 [0 ffffffff 1f 800] [energy 2.956670 ei 0.039 es 0.000 et 0.000 er 0.004] ------- [31:255 -1:255 32 0] 
r 0.092635108 _11_ RTR  --- 2 message 32 [0 ffffffff 1f 800] [energy 2.957101 ei 0.039 es 0.000 et 0.001 er 0.003] ------- [31:255 -1:255 32 0] 
r 0.092635108 _33_ RTR  --- 2 message 32 [0 ffffffff 1f 800] [energy 2.956669 ei 0.039 es 0.000 et 0.000 er 0.004] ------- [31:255 -1:255 32 0] 
s 0.126846076 _36_ RTR  --- 3 message 32 [0 0 0 0] [energy 2.965139 ei 0.034 es 0.000 et 0.000 er 0.001] ------- [36:255 -1:255 32 0] 
N -t 0.128791 -n 26 -e 2.940100
N -t 0.128791 -n 35 -e 2.939452
N -t 0.128791 -n 37 -e 2.940100
N -t 0.128792 -n 25 -e 2.938804
N -t 0.128792 -n 27 -e 2.940100
N -t 0.128792 -n 16 -e 2.940100
N -t 0.128792 -n 34 -e 2.938804
N -t 0.128792 -n 38 -e 2.940748
N -t 0.128792 -n 15 -e 2.939452
N -t 0.128792 -n 24 -e 2.938804
N -t 0.128792 -n 17 -e 2.940100
N -t 0.128792 -n 28 -e 2.940748
N -t 0.128792 -n 14 -e 2.938803
N -t 0.128792 -n 18 -e 2.940099
N -t 0.128792 -n 6 -e 2.940099
N -t 0.128792 -n 33 -e 2.938803
N -t 0.128792 -n 39 -e 2.940747
N -t 0.128792 -n 5 -e 2.939451
N -t 0.128792 -n 23 -e 2.938803
N -t 0.128792 -n 7 -e 2.940099
N -t 0.128792 -n 29 -e 2.940747
N -t 0.128793 -n 4 -e 2.939235
N -t 0.128793 -n 13 -e 2.938803
N -t 0.128793 -n 8 -e 2.940099
N -t 0.128793 -n 19 -e 2.940747
N -t 0.128793 -n 32 -e 2.938803
N -t 0.128793 -n 22 -e 2.938803
N -t 0.128793 -n 3 -e 2.938803
N -t 0.128793 -n 9 -e 2.940747
s 0.129642904 _28_ RTR  --- 4 message 32 [0 0 0 0] [energy 2.940748 ei 0.058 es 0.000 et 0.000 er 0.001] ------- [28:255 -1:255 32 0] 
r 0.130896492 _26_ RTR  --- 3 message 32 [0 ffffffff 24 800] [energy 2.940100 ei 0.057 es 0.000 et 0.000 er 0.003] ------- [36:255 -1:255 32 0] 
r 0.130896492 _35_ RTR  --- 3 message 32 [0 ffffffff 24 800] [energy 2.939452 ei 0.057 es 0.000 et 0.000 er 0.004] ------- [36:255 -1:255 32 0] 
r 0.130896492 _37_ RTR  --- 3 message 32 [0 ffffffff 24 800] [energy 2.940100 ei 0.057 es 0.000 et 0.000 er 0.003] ------- [36:255 -1:255 32 0] 
r 0.130896665 _25_ RTR  --- 3 message 32 [0 ffffffff 24 800] [energy 2.938804 ei 0.056 es 0.000 et 0.000 er 0.005] ------- [36:255 -1:255 32 0] 
r 0.130896665 _27_ RTR  --- 3 message 32 [0 ffffffff 24 800] [energy 2.940100 ei 0.057 es 0.000 et 0.000 er 0.003] ------- [36:255 -1:255 32 0] 
r 0.130896909 _16_ RTR  --- 3 message 32 [0 ffffffff 24 800] [energy 2.940100 ei 0.057 es 0.000 et 0.000 er 0.003] ------- [36:255 -1:255 32 0] 
r 0.130896909 _34_ RTR  --- 3 message 32 [0 ffffffff 24 800] [energy 2.938804 ei 0.056 es 0.000 et 0.000 er 0.005] ------- [36:255 -1:255 32 0] 
r 0.130896909 _38_ RTR  --- 3 message 32 [0 ffffffff 24 800] [energy 2.940748 ei 0.058 es 0.000 et 0.000 er 0.001] ------- [36:255 -1:255 32 0] 
N -t 0.131268 -n 18 -e 2.938337
N -t 0.131268 -n 27 -e 2.938337
N -t 0.131268 -n 38 -e 2.938985
N -t 0.131268 -n 29 -e 2.938985
N -t 0.131268 -n 37 -e 2.938337
N -t 0.131268 -n 17 -e 2.938337
N -t 0.131268 -n 19 -e 2.938985
N -t 0.131268 -n 39 -e 2.938985
N -t 0.131269 -n 8 -e 2.938337
N -t 0.131269 -n 26 -e 2.938337
N -t 0.131269 -n 7 -e 2.938337
N -t 0.131269 -n 36 -e 2.938769
N -t 0.131269 -n 16 -e 2.938337
N -t 0.131269 -n 9 -e 2.938985
N -t 0.131269 -n 6 -e 2.938337
N -t 0.131269 -n 25 -e 2.937041
N -t 0.131269 -n 35 -e 2.937689
N -t 0.131269 -n 15 -e 2.937689
N -t 0.131269 -n 5 -e 2.937689
N -t 0.131270 -n 24 -e 2.937041
N -t 0.131270 -n 34 -e 2.937041
N -t 0.131270 -n 14 -e 2.937041
r 0.133373321 _18_ RTR  --- 4 message 32 [0 ffffffff 1c 800] [energy 2.938337 ei 0.058 es 0.000 et 0.000 er 0.004] ------- [28:255 -1:255 32 0] 
r 0.133373321 _27_ RTR  --- 4 message 32 [0 ffffffff 1c 800] [energy 2.938337 ei 0.058 es 0.000 et 0.000 er 0.004] ------- [28:255 -1:255 32 0] 
r 0.133373321 _38_ RTR  --- 4 message 32 [0 ffffffff 1c 800] [energy 2.938985 ei 0.058 es 0.000 et 0.000 er 0.003] ------- [28:255 -1:255 32 0] 
r 0.133373321 _29_ RTR  --- 4 message 32 [0 ffffffff 1c 800] [energy 2.938985 ei 0.058 es 0.000 et 0.000 er 0.003] ------- [28:255 -1:255 32 0] 
r 0.133373494 _37_ RTR  --- 4 message 32 [0 ffffffff 1c 800] [energy 2.938337 ei 0.058 es 0.000 et 0.000 er 0.004] ------- [28:255 -1:255 32 0] 
r 0.133373494 _17_ RTR  --- 4 message 32 [0 ffffffff 1c 800] [energy 2.938337 ei 0.058 es 0.000 et 0.000 er 0.004] ------- [28:255 -1:255 32 0] 
r 0.133373494 _19_ RTR  --- 4 message 32 [0 ffffffff 1c 800] [energy 2.938985 ei 0.058 es 0.000 et 0.000 er 0.003] ------- [28:255 -1:255 32 0] 
r 0.133373494 _39_ RTR  --- 4 message 32 [0 ffffffff 1c 800] [energy 2.938985 ei 0.058 es 0.000 et 0.000 er 0.003] ------- [28:255 -1:255 32 0] 
r 0.133373738 _8_ RTR  --- 4 message 32 [0 ffffffff 1c 800] [energy 2.938337 ei 0.058 es 0.000 et 0.000 er 0.004] ------- [28:255 -1:255 32 0] 
r 0.133373738 _26_ RTR  --- 4 message 32 [0 ffffffff 1c 800] [energy 2.938337 ei 0.058 es 0.000 et 0.000 er 0.004] ------- [28:255 -1:255 32 0] 
s 0.247164037 _15_ RTR  --- 5 message 32 [0 0 0 0] [energy 2.937689 ei 0.057 es 0.000 et 0.000 er 0.005] ------- [15:255 -1:255 32 0] 
N -t 0.248469 -n 5 -e 2.884301
N -t 0.248469 -n 14 -e 2.883653
N -t 0.248469 -n 25 -e 2.883653
N -t 0.248469 -n 16 -e 2.884949
N -t 0.248470 -n 24 -e 2.883653
N -t 0.248470 -n 4 -e 2.884733
N -t 0.248470 -n 6 -e 2.884949
N -t 0.248470 -n 26 -e 2.884949
N -t 0.248470 -n 13 -e 2.884301
N -t 0.248470 -n 35 -e 2.884301
N -t 0.248470 -n 17 -e 2.884949
N -t 0.248470 -n 34 -e 2.883653
N -t 0.248470 -n 23 -e 2.884301
N -t 0.248470 -n 3 -e 2.884301
N -t 0.248470 -n 36 -e 2.885381
N -t 0.248470 -n 7 -e 2.884949
N -t 0.248470 -n 27 -e 2.884949
N -t 0.248470 -n 33 -e 2.884300
N -t 0.248470 -n 37 -e 2.884948
N -t 0.248470 -n 12 -e 2.884948
N -t 0.248470 -n 18 -e 2.884948
N -t 0.248470 -n 22 -e 2.884300
N -t 0.248470 -n 2 -e 2.884948
N -t 0.248470 -n 8 -e 2.884948
N -t 0.248470 -n 28 -e 2.886028
N -t 0.248471 -n 32 -e 2.884300
N -t 0.248471 -n 38 -e 2.885596
N -t 0.248471 -n 11 -e 2.885380
N -t 0.248471 -n 19 -e 2.885596
N -t 0.248471 -n 21 -e 2.884948
N -t 0.248471 -n 1 -e 2.884948
N -t 0.248471 -n 9 -e 2.885596
N -t 0.248471 -n 29 -e 2.885596
r 0.250574453 _5_ RTR  --- 5 message 32 [0 ffffffff f 800] [energy 2.884301 ei 0.109 es 0.000 et 0.000 er 0.006] ------- [15:255 -1:255 32 0] 
r 0.250574453 _14_ RTR  --- 5 message 32 [0 ffffffff f 800] [energy 2.883653 ei 0.109 es 0.000 et 0.000 er 0.008] ------- [15:255 -1:255 32 0] 
r 0.250574453 _25_ RTR  --- 5 message 32 [0 ffffffff f 800] [energy 2.883653 ei 0.109 es 0.000 et 0.000 er 0.008] ------- [15:255 -1:255 32 0] 
r 0.250574453 _16_ RTR  --- 5 message 32 [0 ffffffff f 800] [energy 2.884949 ei 0.110 es 0.000 et 0.000 er 0.005] ------- [15:255 -1:255 32 0] 
r 0.250574626 _24_ RTR  --- 5 message 32 [0 ffffffff f 800] [energy 2.883653 ei 0.109 es 0.000 et 0.000 er 0.008] ------- [15:255 -1:255 32 0] 
r 0.250574626 _4_ RTR  --- 5 message 32 [0 ffffffff f 800] [energy 2.884733 ei 0.109 es 0.000 et 0.001 er 0.005] ------- [15:255 -1:255 32 0] 
r 0.250574626 _6_ RTR  --- 5 message 32 [0 ffffffff f 800] [energy 2.884949 ei 0.110 es 0.000 et 0.000 er 0.005] ------- [15:255 -1:255 32 0] 
r 0.250574626 _26_ RTR  --- 5 message 32 [0 ffffffff f 800] [energy 2.884949 ei 0.110 es 0.000 et 0.000 er 0.005] ------- [15:255 -1:255 32 0] 
r 0.250574870 _13_ RTR  --- 5 message 32 [0 ffffffff f 800] [energy 2.884301 ei 0.109 es 0.000 et 0.000 er 0.006] ------- [15:255 -1:255 32 0] 
r 0.250574870 _35_ RTR  --- 5 message 32 [0 ffffffff f 800] [energy 2.884301 ei 0.109 es 0.000 et 0.000 er 0.006] ------- [15:255 -1:255 32 0] 
r 0.250574870 _17_ RTR  --- 5 message 32 [0 ffffffff f 800] [energy 2.884949 ei 0.110 es 0.000 et 0.000 er 0.005] ------- [15:255 -1:255 32 0] 
s 0.321822596 _26_ RTR  --- 6 message 32 [0 0 0 0] [energy 2.884949 ei 0.110 es 0.000 et 0.000 er 0.005] ------- [26:255 -1:255 32 0] 
N -t 0.322168 -n 16 -e 2.851136
N -t 0.322168 -n 25 -e 2.849840
N -t 0.322168 -n 36 -e 2.851568
N -t 0.322168 -n 27 -e 2.851136
N -t 0.322168 -n 35 -e 2.850488
N -t 0.322168 -n 15 -e 2.850920
N -t 0.322168 -n 17 -e 2.851136
N -t 0.322168 -n 37 -e 2.851136
N -t 0.322168 -n 6 -e 2.851136
N -t 0.322168 -n 24 -e 2.849840
N -t 0.322168 -n 28 -e 2.852216
N -t 0.322169 -n 5 -e 2.850488
N -t 0.322169 -n 34 -e 2.849840
N -t 0.322169 -n 14 -e 2.849840
N -t 0.322169 -n 7 -e 2.851136
N -t 0.322169 -n 18 -e 2.851136
N -t 0.322169 -n 38 -e 2.851784
N -t 0.322169 -n 4 -e 2.850920
N -t 0.322169 -n 8 -e 2.851136
N -t 0.322169 -n 23 -e 2.850488
N -t 0.322169 -n 29 -e 2.851784
N -t 0.322169 -n 33 -e 2.850488
N -t 0.322169 -n 13 -e 2.850488
N -t 0.322169 -n 19 -e 2.851784
N -t 0.322169 -n 39 -e 2.852432
N -t 0.322169 -n 3 -e 2.850488
N -t 0.322169 -n 9 -e 2.851784
N -t 0.322169 -n 22 -e 2.850488
N -t 0.322169 -n 32 -e 2.850488
N -t 0.322169 -n 12 -e 2.851136
r 0.324273013 _16_ RTR  --- 6 message 32 [0 ffffffff 1a 800] [energy 2.851136 ei 0.142 es 0.000 et 0.000 er 0.006] ------- [26:255 -1:255 32 0] 
r 0.324273013 _25_ RTR  --- 6 message 32 [0 ffffffff 1a 800] [energy 2.849840 ei 0.141 es 0.000 et 0.000 er 0.009] ------- [26:255 -1:255 32 0] 
r 0.324273013 _36_ RTR  --- 6 message 32 [0 ffffffff 1a 800] [energy 2.851568 ei 0.142 es 0.000 et 0.001 er 0.005] ------- [26:255 -1:255 32 0] 
r 0.324273013 _27_ RTR  --- 6 message 32 [0 ffffffff 1a 800] [energy 2.851136 ei 0.142 es 0.000 et 0.000 er 0.006] ------- [26:255 -1:255 32 0] 
r 0.324273186 _35_ RTR  --- 6 message 32 [0 ffffffff 1a 800] [energy 2.850488 ei 0.142 es 0.000 et 0.000 er 0.008] ------- [26:255 -1:255 32 0] 
r 0.324273186 _15_ RTR  --- 6 message 32 [0 ffffffff 1a 800] [energy 2.850920 ei 0.142 es 0.000 et 0.001 er 0.007] ------- [26:255 -1:255 32 0] 
r 0.324273186 _17_ RTR  --- 6 message 32 [0 ffffffff 1a 800] [energy 2.851136 ei 0.142 es 0.000 et 0.000 er 0.006] ------- [26:255 -1:255 32 0] 
r 0.324273186 _37_ RTR  --- 6 message 32 [0 ffffffff 1a 800] [energy 2.851136 ei 0.142 es 0.000 et 0.000 er 0.006] ------- [26:255 -1:255 32 0] 
r 0.324273430 _6_ RTR  --- 6 message 32 [0 ffffffff 1a 800] [energy 2.851136 ei 0.142 es 0.000 et 0.000 er 0.006] ------- [26:255 -1:255 32 0] 
r 0.324273430 _24_ RTR  --- 6 message 32 [0 ffffffff 1a 800] [energy 2.849840 ei 0.141 es 0.000 et 0.000 er 0.009] ------- [26:255 -1:255 32 0] 
r 0.324273430 _28_ RTR  --- 6 message 32 [0 ffffffff 1a 800] [energy 2.852216 ei 0.143 es 0.000 et 0.001 er 0.004] ------- [26:255 -1:255 32 0] 
s 0.349191800 _3_ RTR  --- 7 message 32 [0 0 0 0] [energy 2.850488 ei 0.142 es 0.000 et 0.000 er 0.008] ------- [3:255 -1:255 32 0] 
N -t 0.350817 -n 2 -e 2.838244
N -t 0.350817 -n 13 -e 2.836948
N -t 0.350817 -n 4 -e 2.837380
N -t 0.350817 -n 12 -e 2.837596
N -t 0.350817 -n 14 -e 2.836300
N -t 0.350818 -n 1 -e 2.838244
N -t 0.350818 -n 23 -e 2.836948
N -t 0.350818 -n 5 -e 2.836948
N -t 0.350818 -n 22 -e 2.836948
N -t 0.350818 -n 11 -e 2.838676
N -t 0.350818 -n 24 -e 2.836300
N -t 0.350818 -n 15 -e 2.837380
N -t 0.350818 -n 21 -e 2.838244
N -t 0.350818 -n 25 -e 2.836300
N -t 0.350818 -n 0 -e 2.838892
N -t 0.350818 -n 33 -e 2.836948
N -t 0.350818 -n 6 -e 2.837596
N -t 0.350818 -n 32 -e 2.836948
N -t 0.350818 -n 10 -e 2.838892
N -t 0.350818 -n 34 -e 2.836300
N -t 0.350818 -n 16 -e 2.837596
N -t 0.350818 -n 31 -e 2.839324
N -t 0.350818 -n 20 -e 2.839540
N -t 0.350818 -n 35 -e 2.836948
N -t 0.350818 -n 26 -e 2.838028
N -t 0.350818 -n 7 -e 2.837596
N -t 0.350819 -n 17 -e 2.837596
N -t 0.350819 -n 30 -e 2.839540
N -t 0.350819 -n 36 -e 2.838028
r 0.352922217 _2_ RTR  --- 7 message 32 [0 ffffffff 3 800] [energy 2.838244 ei 0.155 es 0.000 et 0.000 er 0.006] ------- [3:255 -1:255 32 0] 
r 0.352922217 _13_ RTR  --- 7 message 32 [0 ffffffff 3 800] [energy 2.836948 ei 0.154 es 0.000 et 0.000 er 0.009] ------- [3:255 -1:255 32 0] 
r 0.352922217 _4_ RTR  --- 7 message 32 [0 ffffffff 3 800] [energy 2.837380 ei 0.154 es 0.000 et 0.001 er 0.008] ------- [3:255 -1:255 32 0] 
r 0.352922390 _12_ RTR  --- 7 message 32 [0 ffffffff 3 800] [energy 2.837596 ei 0.155 es 0.000 et 0.000 er 0.008] ------- [3:255 -1:255 32 0] 
r 0.352922390 _14_ RTR  --- 7 message 32 [0 ffffffff 3 800] [energy 2.836300 ei 0.153 es 0.000 et 0.000 er 0.010] ------- [3:255 -1:255 32 0] 
r 0.352922634 _1_ RTR  --- 7 message 32 [0 ffffffff 3 800] [energy 2.838244 ei 0.155 es 0.000 et 0.000 er 0.006] ------- [3:255 -1:255 32 0] 
r 0.352922634 _23_ RTR  --- 7 message 32 [0 ffffffff 3 800] [energy 2.836948 ei 0.154 es 0.000 et 0.000 er 0.009] ------- [3:255 -1:255 32 0] 
r 0.352922634 _5_ RTR  --- 7 message 32 [0 ffffffff 3 800] [energy 2.836948 ei 0.154 es 0.000 et 0.000 er 0.009] ------- [3:255 -1:255 32 0] 
s 0.356017125 _29_ RTR  --- 8 message 32 [0 0 0 0] [energy 2.851784 ei 0.143 es 0.000 et 0.000 er 0.005] ------- [29:255 -1:255 32 0] 
N -t 0.357323 -n 19 -e 2.835317
N -t 0.357323 -n 28 -e 2.835749
N -t 0.357323 -n 39 -e 2.835965
N -t 0.357323 -n 38 -e 2.835317
N -t 0.357323 -n 18 -e 2.834669
N -t 0.357323 -n 9 -e 2.835317
N -t 0.357323 -n 27 -e 2.834669
N -t 0.357323 -n 8 -e 2.834669
N -t 0.357323 -n 37 -e 2.834669
N -t 0.357323 -n 17 -e 2.834021
N -t 0.357323 -n 7 -e 2.834021
N -t 0.357323 -n 26 -e 2.834452
N -t 0.357323 -n 36 -e 2.834452
N -t 0.357323 -n 16 -e 2.834020
N -t 0.357324 -n 6 -e 2.834020
N -t 0.357324 -n 25 -e 2.832724
N -t 0.357324 -n 35 -e 2.833372
N -t 0.357324 -n 15 -e 2.833804
r 0.359427542 _19_ RTR  --- 8 message 32 [0 ffffffff 1d 800] [energy 2.835317 ei 0.158 es 0.000 et 0.000 er 0.006] ------- [29:255 -1:255 32 0] 
r 0.359427542 _28_ RTR  --- 8 message 32 [0 ffffffff 1d 800] [energy 2.835749 ei 0.158 es 0.000 et 0.001 er 0.005] ------- [29:255 -1:255 32 0] 
r 0.359427542 _39_ RTR  --- 8 message 32 [0 ffffffff 1d 800] [energy 2.835965 ei 0.159 es 0.000 et 0.000 er 0.005] ------- [29:255 -1:255 32 0] 
r 0.359427714 _38_ RTR  --- 8 message 32 [0 ffffffff 1d 800] [energy 2.835317 ei 0.158 es 0.000 et 0.000 er 0.006] ------- [29:255 -1:255 32 0] 
r 0.359427714 _18_ RTR  --- 8 message 32 [0 ffffffff 1d 800] [energy 2.834669 ei 0.158 es 0.000 et 0.000 er 0.008] ------- [29:255 -1:255 32 0] 
r 0.359427958 _9_ RTR  --- 8 message 32 [0 ffffffff 1d 800] [energy 2.835317 ei 0.158 es 0.000 et 0.000 er 0.006] ------- [29:255 -1:255 32 0] 
r 0.359427958 _27_ RTR  --- 8 message 32 [0 ffffffff 1d 800] [energy 2.834669 ei 0.158 es 0.000 et 0.000 er 0.008] ------- [29:255 -1:255 32 0] 
s 0.421784672 _10_ RTR  --- 9 message 32 [0 0 0 0] [energy 2.838892 ei 0.156 es 0.000 et 0.000 er 0.005] ------- [10:255 -1:255 32 0] 
N -t 0.423410 -n 0 -e 2.805577
N -t 0.423410 -n 20 -e 2.806225
N -t 0.423410 -n 11 -e 2.805361
N -t 0.423410 -n 1 -e 2.804929
N -t 0.423410 -n 21 -e 2.804929
N -t 0.423411 -n 30 -e 2.806225
N -t 0.423411 -n 12 -e 2.804281
N -t 0.423411 -n 31 -e 2.806009
N -t 0.423411 -n 2 -e 2.804929
N -t 0.423411 -n 22 -e 2.803633
N -t 0.423411 -n 32 -e 2.803633
N -t 0.423411 -n 13 -e 2.803633
N -t 0.423411 -n 3 -e 2.804065
N -t 0.423411 -n 23 -e 2.803633
N -t 0.423411 -n 33 -e 2.803633
N -t 0.423411 -n 14 -e 2.802985
N -t 0.423411 -n 4 -e 2.804065
N -t 0.423411 -n 24 -e 2.802985
r 0.425515089 _0_ RTR  --- 9 message 32 [0 ffffffff a 800] [energy 2.805577 ei 0.188 es 0.000 et 0.000 er 0.006] ------- [10:255 -1:255 32 0] 
r 0.425515089 _20_ RTR  --- 9 message 32 [0 ffffffff a 800] [energy 2.806225 ei 0.189 es 0.000 et 0.000 er 0.005] ------- [10:255 -1:255 32 0] 
r 0.425515089 _11_ RTR  --- 9 message 32 [0 ffffffff a 800] [energy 2.805361 ei 0.187 es 0.000 et 0.001 er 0.007] ------- [10:255 -1:255 32 0] 
r 0.425515261 _1_ RTR  --- 9 message 32 [0 ffffffff a 800] [energy 2.804929 ei 0.187 es 0.000 et 0.000 er 0.008] ------- [10:255 -1:255 32 0] 
r 0.425515261 _21_ RTR  --- 9 message 32 [0 ffffffff a 800] [energy 2.804929 ei 0.187 es 0.000 et 0.000 er 0.008] ------- [10:255 -1:255 32 0] 
r 0.425515505 _30_ RTR  --- 9 message 32 [0 ffffffff a 800] [energy 2.806225 ei 0.189 es 0.000 et 0.000 er 0.005] ------- [10:255 -1:255 32 0] 
r 0.425515505 _12_ RTR  --- 9 message 32 [0 ffffffff a 800] [energy 2.804281 ei 0.187 es 0.000 et 0.000 er 0.009] ------- [10:255 -1:255 32 0] 
s 0.429968552 _17_ RTR  --- 10 message 32 [0 0 0 0] [energy 2.834021 ei 0.157 es 0.000 et 0.000 er 0.009] ------- [17:255 -1:255 32 0] 
N -t 0.431914 -n 7 -e 2.799807
N -t 0.431914 -n 16 -e 2.799807
N -t 0.431914 -n 27 -e 2.800455
N -t 0.431914 -n 18 -e 2.800455
N -t 0.431914 -n 26 -e 2.800239
N -t 0.431914 -n 6 -e 2.799807
N -t 0.431914 -n 8 -e 2.800455
N -t 0.431914 -n 28 -e 2.801535
N -t 0.431914 -n 15 -e 2.799591
N -t 0.431914 -n 37 -e 2.800455
N -t 0.431914 -n 19 -e 2.801103
N -t 0.431914 -n 36 -e 2.800238
N -t 0.431914 -n 25 -e 2.798510
N -t 0.431914 -n 5 -e 2.799806
N -t 0.431914 -n 38 -e 2.801102
N -t 0.431914 -n 9 -e 2.801102
N -t 0.431914 -n 29 -e 2.801534
N -t 0.431915 -n 35 -e 2.799158
N -t 0.431915 -n 39 -e 2.801750
N -t 0.431915 -n 14 -e 2.798510
N -t 0.431915 -n 24 -e 2.798510
N -t 0.431915 -n 4 -e 2.799590
N -t 0.431915 -n 34 -e 2.799158
N -t 0.431915 -n 13 -e 2.799158
N -t 0.431915 -n 23 -e 2.799158
N -t 0.431915 -n 3 -e 2.799590
r 0.434018968 _7_ RTR  --- 10 message 32 [0 ffffffff 11 800] [energy 2.799807 ei 0.190 es 0.000 et 0.000 er 0.010] ------- [17:255 -1:255 32 0] 
r 0.434018968 _16_ RTR  --- 10 message 32 [0 ffffffff 11 800] [energy 2.799807 ei 0.190 es 0.000 et 0.000 er 0.010] ------- [17:255 -1:255 32 0] 
r 0.434018968 _27_ RTR  --- 10 message 32 [0 ffffffff 11 800] [energy 2.800455 ei 0.190 es 0.000 et 0.000 er 0.009] ------- [17:255 -1:255 32 0] 
r 0.434018968 _18_ RTR  --- 10 message 32 [0 ffffffff 11 800] [energy 2.800455 ei 0.190 es 0.000 et 0.000 er 0.009] ------- [17:255 -1:255 32 0] 
r 0.434019141 _26_ RTR  --- 10 message 32 [0 ffffffff 11 800] [energy 2.800239 ei 0.190 es 0.000 et 0.001 er 0.009] ------- [17:255 -1:255 32 0] 
r 0.434019141 _6_ RTR  --- 10 message 32 [0 ffffffff 11 800] [energy 2.799807 ei 0.190 es 0.000 et 0.000 er 0.010] ------- [17:255 -1:255 32 0] 
r 0.434019141 _8_ RTR  --- 10 message 32 [0 ffffffff 11 800] [energy 2.800455 ei 0.190 es 0.000 et 0.000 er 0.009] ------- [17:255 -1:255 32 0] 
r 0.434019141 _28_ RTR  --- 10 message 32 [0 ffffffff 11 800] [energy 2.801535 ei 0.191 es 0.000 et 0.001 er 0.007] ------- [17:255 -1:255 32 0] 
r 0.434019385 _15_ RTR  --- 10 message 32 [0 ffffffff 11 800] [energy 2.799591 ei 0.189 es 0.000 et 0.001 er 0.011] ------- [17:255 -1:255 32 0] 
r 0.434019385 _37_ RTR  --- 10 message 32 [0 ffffffff 11 800] [energy 2.800455 ei 0.190 es 0.000 et 0.000 er 0.009] ------- [17:255 -1:255 32 0] 
r 0.434019385 _19_ RTR  --- 10 message 32 [0 ffffffff 11 800] [energy 2.801103 ei 0.191 es 0.000 et 0.000 er 0.008] ------- [17:255 -1:255 32 0] 
s 0.454435365 _34_ RTR  --- 11 message 32 [0 0 0 0] [energy 2.799158 ei 0.189 es 0.000 et 0.000 er 0.012] ------- [34:255 -1:255 32 0] 
N -t 0.456061 -n 24 -e 2.786997
N -t 0.456061 -n 33 -e 2.788293
N -t 0.456061 -n 35 -e 2.787645
N -t 0.456061 -n 23 -e 2.787645
N -t 0.456061 -n 25 -e 2.786997
N -t 0.456061 -n 14 -e 2.786996
N -t 0.456061 -n 32 -e 2.788292
N -t 0.456061 -n 36 -e 2.788724
N -t 0.456061 -n 13 -e 2.787644
N -t 0.456061 -n 22 -e 2.788292
N -t 0.456061 -n 15 -e 2.788076
N -t 0.456061 -n 26 -e 2.788724
N -t 0.456062 -n 12 -e 2.788940
N -t 0.456062 -n 16 -e 2.788292
N -t 0.456062 -n 4 -e 2.788076
N -t 0.456062 -n 31 -e 2.790668
N -t 0.456062 -n 37 -e 2.788940
N -t 0.456062 -n 3 -e 2.788076
N -t 0.456062 -n 21 -e 2.789588
N -t 0.456062 -n 5 -e 2.788292
N -t 0.456062 -n 27 -e 2.788940
N -t 0.456062 -n 2 -e 2.789588
N -t 0.456062 -n 11 -e 2.790020
N -t 0.456062 -n 6 -e 2.788292
N -t 0.456062 -n 17 -e 2.788724
N -t 0.456062 -n 30 -e 2.790884
N -t 0.456062 -n 38 -e 2.789588
N -t 0.456062 -n 20 -e 2.790884
N -t 0.456062 -n 28 -e 2.790020
N -t 0.456062 -n 1 -e 2.789588
N -t 0.456062 -n 7 -e 2.788292
r 0.458165782 _24_ RTR  --- 11 message 32 [0 ffffffff 22 800] [energy 2.786997 ei 0.199 es 0.000 et 0.000 er 0.014] ------- [34:255 -1:255 32 0] 
r 0.458165782 _33_ RTR  --- 11 message 32 [0 ffffffff 22 800] [energy 2.788293 ei 0.200 es 0.000 et 0.000 er 0.012] ------- [34:255 -1:255 32 0] 
r 0.458165782 _35_ RTR  --- 11 message 32 [0 ffffffff 22 800] [energy 2.787645 ei 0.199 es 0.000 et 0.000 er 0.013] ------- [34:255 -1:255 32 0] 
r 0.458165955 _23_ RTR  --- 11 message 32 [0 ffffffff 22 800] [energy 2.787645 ei 0.199 es 0.000 et 0.000 er 0.013] ------- [34:255 -1:255 32 0] 
r 0.458165955 _25_ RTR  --- 11 message 32 [0 ffffffff 22 800] [energy 2.786997 ei 0.199 es 0.000 et 0.000 er 0.014] ------- [34:255 -1:255 32 0] 
r 0.458166199 _14_ RTR  --- 11 message 32 [0 ffffffff 22 800] [energy 2.786996 ei 0.199 es 0.000 et 0.000 er 0.014] ------- [34:255 -1:255 32 0] 
r 0.458166199 _32_ RTR  --- 11 message 32 [0 ffffffff 22 800] [energy 2.788292 ei 0.200 es 0.000 et 0.000 er 0.012] ------- [34:255 -1:255 32 0] 
r 0.458166199 _36_ RTR  --- 11 message 32 [0 ffffffff 22 800] [energy 2.788724 ei 0.200 es 0.000 et 0.001 er 0.011] ------- [34:255 -1:255 32 0] 
s 0.474672686 _27_ RTR  --- 12 message 32 [0 0 0 0] [energy 2.788940 ei 0.201 es 0.000 et 0.000 er 0.010] ------- [27:255 -1:255 32 0] 
N -t 0.475018 -n 17 -e 2.779546
N -t 0.475018 -n 26 -e 2.779546
N -t 0.475018 -n 37 -e 2.779762
N -t 0.475018 -n 28 -e 2.780842
N -t 0.475018 -n 36 -e 2.779546
N -t 0.475018 -n 16 -e 2.779114
N -t 0.475018 -n 18 -e 2.780410
N -t 0.475018 -n 38 -e 2.780410
N -t 0.475019 -n 7 -e 2.779114
N -t 0.475019 -n 25 -e 2.777818
N -t 0.475019 -n 29 -e 2.781490
N -t 0.475019 -n 6 -e 2.779114
N -t 0.475019 -n 35 -e 2.778466
N -t 0.475019 -n 15 -e 2.778898
N -t 0.475019 -n 8 -e 2.780410
N -t 0.475019 -n 19 -e 2.781058
N -t 0.475019 -n 39 -e 2.781706
N -t 0.475019 -n 5 -e 2.779114
N -t 0.475019 -n 9 -e 2.781058
N -t 0.475019 -n 24 -e 2.777817
N -t 0.475019 -n 34 -e 2.778897
N -t 0.475019 -n 14 -e 2.777817
N -t 0.475019 -n 4 -e 2.778897
N -t 0.475019 -n 23 -e 2.778465
N -t 0.475019 -n 33 -e 2.779113
N -t 0.475019 -n 13 -e 2.778465
r 0.477123103 _17_ RTR  --- 12 message 32 [0 ffffffff 1b 800] [energy 2.779546 ei 0.208 es 0.000 et 0.001 er 0.012] ------- [27:255 -1:255 32 0] 
r 0.477123103 _26_ RTR  --- 12 message 32 [0 ffffffff 1b 800] [energy 2.779546 ei 0.208 es 0.000 et 0.001 er 0.012] ------- [27:255 -1:255 32 0] 
r 0.477123103 _37_ RTR  --- 12 message 32 [0 ffffffff 1b 800] [energy 2.779762 ei 0.209 es 0.000 et 0.000 er 0.012] ------- [27:255 -1:255 32 0] 
r 0.477123103 _28_ RTR  --- 12 message 32 [0 ffffffff 1b 800] [energy 2.780842 ei 0.209 es 0.000 et 0.001 er 0.009] ------- [27:255 -1:255 32 0] 
r 0.477123276 _36_ RTR  --- 12 message 32 [0 ffffffff 1b 800] [energy 2.779546 ei 0.208 es 0.000 et 0.001 er 0.012] ------- [27:255 -1:255 32 0] 
r 0.477123276 _16_ RTR  --- 12 message 32 [0 ffffffff 1b 800] [energy 2.779114 ei 0.208 es 0.000 et 0.000 er 0.013] ------- [27:255 -1:255 32 0] 
r 0.477123276 _18_ RTR  --- 12 message 32 [0 ffffffff 1b 800] [energy 2.780410 ei 0.209 es 0.000 et 0.000 er 0.010] ------- [27:255 -1:255 32 0] 
r 0.477123276 _38_ RTR  --- 12 message 32 [0 ffffffff 1b 800] [energy 2.780410 ei 0.209 es 0.000 et 0.000 er 0.010] ------- [27:255 -1:255 32 0] 
r 0.477123520 _7_ RTR  --- 12 message 32 [0 ffffffff 1b 800] [energy 2.779114 ei 0.208 es 0.000 et 0.000 er 0.013] ------- [27:255 -1:255 32 0] 
r 0.477123520 _25_ RTR  --- 12 message 32 [0 ffffffff 1b 800] [energy 2.777818 ei 0.207 es 0.000 et 0.000 er 0.016] ------- [27:255 -1:255 32 0] 
r 0.477123520 _29_ RTR  --- 12 message 32 [0 ffffffff 1b 800] [energy 2.781490 ei 0.210 es 0.000 et 0.001 er 0.008] ------- [27:255 -1:255 32 0] 
s 0.671962519 _14_ RTR  --- 13 message 32 [0 0 0 0] [energy 2.777817 ei 0.207 es 0.000 et 0.000 er 0.016] ------- [14:255 -1:255 32 0] 
N -t 0.674548 -n 4 -e 2.688461
N -t 0.674548 -n 13 -e 2.688029
N -t 0.674548 -n 24 -e 2.687381
N -t 0.674548 -n 15 -e 2.688461
N -t 0.674548 -n 23 -e 2.688029
N -t 0.674548 -n 3 -e 2.689109
N -t 0.674548 -n 5 -e 2.688677
N -t 0.674548 -n 25 -e 2.687381
N -t 0.674548 -n 12 -e 2.689973
N -t 0.674548 -n 34 -e 2.688461
N -t 0.674548 -n 16 -e 2.688677
N -t 0.674548 -n 33 -e 2.688677
N -t 0.674548 -n 22 -e 2.689325
N -t 0.674548 -n 2 -e 2.690621
N -t 0.674548 -n 35 -e 2.688029
N -t 0.674548 -n 6 -e 2.688677